REMARK  Name = /srv/my_project/app/compsite/backup/Dave/CORINA_stuff/newPDBs/SANC00274.pdb
AUTHORGENERATED BY OPEN BABEL 2.3.2
REMARK  6 active torsions:
REMARK  status: ('A' for Active; 'I' for Inactive)
REMARK    1  A    between atoms: C_1  and  C_2
REMARK    2  A    between atoms: C_2  and  C_4
REMARK    3  A    between atoms: C_2  and  C_7
REMARK    4  A    between atoms: C_7  and  C_10
REMARK    5  A    between atoms: C_11  and  C_12
REMARK    6  A    between atoms: C_12  and  C_15
REMARK                            x       y       z     vdW  Elec       q    Type
REMARK                         _______ _______ _______ _____ _____    ______ ____
ROOT
ATOM      1  C   UNL     1      -0.760   0.364   1.160  1.00  0.00    +0.000 C 
ATOM      2 CL   UNL     1      -1.187  -0.852   2.447  1.00  0.00    +0.000 Cl
ENDROOT
BRANCH   1   4
ATOM      3  C   UNL     1      -1.879  -1.060  -0.677  1.00  0.00    +0.000 C 
ATOM      4  C   UNL     1      -1.825   0.325  -0.007  1.00  0.00    +0.000 C 
ATOM      5 CL   UNL     1      -1.359   1.575  -1.243  1.00  0.00    +0.000 Cl
BRANCH   4   6
ATOM      6  C   UNL     1      -3.199   0.769   0.517  1.00  0.00    +0.000 C 
ATOM      7  C   UNL     1      -4.405   0.788  -0.069  1.00  0.00    +0.000 C 
ATOM      8 BR   UNL     1      -4.871   0.316  -1.794  1.00  0.00    +0.000 Br
ENDBRANCH   4   6
ENDBRANCH   1   4
BRANCH   1   9
ATOM      9  C   UNL     1       0.739   0.186   0.928  1.00  0.00    +0.000 C 
ATOM     10  C   UNL     1       1.406  -0.045  -0.217  1.00  0.00    +0.000 C 
BRANCH  10  11
ATOM     11  C   UNL     1       2.858  -0.213  -0.393  1.00  0.00    +0.000 C 
ATOM     12  C   UNL     1       3.255  -0.786  -1.547  1.00  0.00    +0.000 C 
ATOM     13 CL   UNL     1       4.861  -1.148  -2.021  1.00  0.00    +0.000 Cl
BRANCH  11  14
ATOM     14  C   UNL     1       3.802   0.273   0.695  1.00  0.00    +0.000 C 
ATOM     15 CL   UNL     1       4.975   1.477   0.103  1.00  0.00    +0.000 Cl
ATOM     16 CL   UNL     1       4.616  -1.084   1.509  1.00  0.00    +0.000 Cl
ENDBRANCH  11  14
ENDBRANCH  10  11
ENDBRANCH   1   9
TORSDOF 5
