REMARK  Name = /srv/my_project/app/compsite/backup/Dave/CORINA_stuff/newPDBs/SANC00362.pdb
AUTHORGENERATED BY OPEN BABEL 2.3.2
REMARK  7 active torsions:
REMARK  status: ('A' for Active; 'I' for Inactive)
REMARK    1  A    between atoms: C_1  and  O_2
REMARK    2  A    between atoms: O_2  and  C_3
REMARK    3  A    between atoms: C_6  and  C_7
REMARK    4  A    between atoms: C_7  and  C_8
REMARK    5  A    between atoms: C_13  and  O_14
REMARK    6  A    between atoms: O_14  and  C_15
REMARK    7  A    between atoms: C_17  and  O_18
REMARK                            x       y       z     vdW  Elec       q    Type
REMARK                         _______ _______ _______ _____ _____    ______ ____
ROOT
ATOM      1  C   UNL     1       0.096  -0.426   0.580  1.00  0.00    +0.000 C 
ATOM      2  C   UNL     1      -0.193  -0.016  -0.860  1.00  0.00    +0.000 C 
ATOM      3  O   UNL     1      -1.229   0.973  -0.925  1.00  0.00    +0.000 OA
ATOM      4  C   UNL     1      -2.393   0.568  -0.329  1.00  0.00    +0.000 A 
ATOM      5  C   UNL     1      -3.563   1.200  -0.749  1.00  0.00    +0.000 A 
ATOM      6  C   UNL     1      -4.801   0.848  -0.200  1.00  0.00    +0.000 A 
ATOM      7  C   UNL     1      -4.858  -0.140   0.784  1.00  0.00    +0.000 A 
ATOM      8  C   UNL     1      -3.685  -0.757   1.220  1.00  0.00    +0.000 A 
ATOM      9  C   UNL     1      -2.449  -0.400   0.671  1.00  0.00    +0.000 A 
ATOM     10  C   UNL     1      -1.187  -0.998   1.146  1.00  0.00    +0.000 C 
ATOM     11  O   UNL     1      -1.225  -1.877   2.004  1.00  0.00    +0.000 OA
ENDROOT
BRANCH   6  12
ATOM     12  O   UNL     1      -5.867   1.536  -0.710  1.00  0.00    +0.000 OA
ATOM     13  C   UNL     1      -7.149   1.222  -0.179  1.00  0.00    +0.000 C 
ENDBRANCH   6  12
BRANCH   8  14
ATOM     14  O   UNL     1      -3.819  -1.705   2.200  1.00  0.00    +0.000 OA
ATOM     15  H   UNL     1      -2.922  -2.049   2.417  1.00  0.00    +0.000 HD
ENDBRANCH   8  14
BRANCH   1  16
ATOM     16  C   UNL     1       1.225  -1.460   0.681  1.00  0.00    +0.000 C 
BRANCH  16  20
ATOM     17  C   UNL     1       5.056   0.065  -0.630  1.00  0.00    +0.000 A 
ATOM     18  C   UNL     1       4.485   0.523   0.557  1.00  0.00    +0.000 A 
ATOM     19  C   UNL     1       3.249   0.025   0.982  1.00  0.00    +0.000 A 
ATOM     20  C   UNL     1       2.565  -0.936   0.225  1.00  0.00    +0.000 A 
ATOM     21  C   UNL     1       3.145  -1.397  -0.962  1.00  0.00    +0.000 A 
ATOM     22  C   UNL     1       4.379  -0.896  -1.383  1.00  0.00    +0.000 A 
BRANCH  17  24
ATOM     23  C   UNL     1       6.985   1.438  -0.421  1.00  0.00    +0.000 C 
ATOM     24  O   UNL     1       6.252   0.467  -1.158  1.00  0.00    +0.000 OA
ENDBRANCH  17  24
ENDBRANCH  16  20
ENDBRANCH   1  16
TORSDOF 5
