REMARK  Name = /srv/my_project/app/compsite/backup/Dave/CORINA_stuff/newPDBs/SANC00330.pdb
AUTHORGENERATED BY OPEN BABEL 2.3.2
REMARK  3 active torsions:
REMARK  status: ('A' for Active; 'I' for Inactive)
REMARK    1  A    between atoms: C_4  and  O_6
REMARK    2  A    between atoms: C_15  and  O_16
REMARK    3  A    between atoms: O_16  and  C_17
REMARK                            x       y       z     vdW  Elec       q    Type
REMARK                         _______ _______ _______ _____ _____    ______ ____
ROOT
ATOM      1  C   UNL     1      -1.758  -0.594   0.884  1.00  0.00    +0.000 C 
ATOM      2  C   UNL     1      -3.258  -0.573   1.218  1.00  0.00    +0.000 C 
ATOM      3  C   UNL     1      -3.708   0.860   1.518  1.00  0.00    +0.000 C 
ATOM      4  C   UNL     1      -3.196   1.855   0.517  1.00  0.00    +0.000 C 
ATOM      5  C   UNL     1      -2.180   1.608  -0.326  1.00  0.00    +0.000 C 
ATOM      6  C   UNL     1      -1.394   0.313  -0.322  1.00  0.00    +0.000 C 
ATOM      7  C   UNL     1      -1.788  -0.572  -1.521  1.00  0.00    +0.000 C 
ATOM      8  C   UNL     1      -1.664  -2.005  -0.999  1.00  0.00    +0.000 C 
ATOM      9  N   UNL     1      -1.284  -1.927   0.427  1.00  0.00    +0.000 NA
ATOM     10  C   UNL     1       0.198  -1.940   0.561  1.00  0.00    +0.000 C 
ATOM     11  C   UNL     1       0.912  -0.684   0.064  1.00  0.00    +0.000 A 
ATOM     12  C   UNL     1       2.326  -0.649   0.049  1.00  0.00    +0.000 A 
ATOM     13  C   UNL     1       2.930   0.519  -0.386  1.00  0.00    +0.000 A 
ATOM     14  O   UNL     1       4.265   0.777  -0.493  1.00  0.00    +0.000 OA
ATOM     15  C   UNL     1       4.266   2.128  -0.989  1.00  0.00    +0.000 C 
ATOM     16  O   UNL     1       2.946   2.661  -1.185  1.00  0.00    +0.000 OA
ATOM     17  C   UNL     1       2.181   1.607  -0.784  1.00  0.00    +0.000 A 
ATOM     18  C   UNL     1       0.802   1.610  -0.776  1.00  0.00    +0.000 A 
ATOM     19  C   UNL     1       0.140   0.456  -0.338  1.00  0.00    +0.000 A 
ENDROOT
BRANCH   3  20
ATOM     20  O   UNL     1      -3.242   1.244   2.805  1.00  0.00    +0.000 OA
ATOM     21  H   UNL     1      -3.383   2.201   2.898  1.00  0.00    +0.000 HD
ENDBRANCH   3  20
BRANCH  12  22
ATOM     22  O   UNL     1       2.946  -1.792   0.472  1.00  0.00    +0.000 OA
ATOM     23  C   UNL     1       4.365  -1.798   0.526  1.00  0.00    +0.000 C 
ENDBRANCH  12  22
TORSDOF 2
