REMARK  Name = /srv/my_project/app/compsite/backup/Dave/CORINA_stuff/newPDBs/SANC00619.pdb
AUTHORGENERATED BY OPEN BABEL 2.3.2
REMARK  14 active torsions:
REMARK  status: ('A' for Active; 'I' for Inactive)
REMARK    1  A    between atoms: C_11  and  C_13
REMARK    2  A    between atoms: C_13  and  C_15
REMARK    3  A    between atoms: C_13  and  C_16
REMARK    4  A    between atoms: C_16  and  C_17
REMARK    5  A    between atoms: C_17  and  C_18
REMARK    6  A    between atoms: C_18  and  C_19
REMARK    7  A    between atoms: C_21  and  C_22
REMARK    8  A    between atoms: C_27  and  C_28
REMARK    9  A    between atoms: C_30  and  O_32
REMARK   10  A    between atoms: O_32  and  S_33
REMARK   11  A    between atoms: S_33  and  O_36
REMARK   12  A    between atoms: C_37  and  O_39
REMARK   13  A    between atoms: O_39  and  S_40
REMARK   14  A    between atoms: S_40  and  O_43
REMARK                            x       y       z     vdW  Elec       q    Type
REMARK                         _______ _______ _______ _____ _____    ______ ____
ROOT
ATOM      1  C   UNL     1       3.109  -0.139   1.287  1.00  0.00    +0.000 C 
ATOM      2  C   UNL     1       2.439  -0.955   2.400  1.00  0.00    +0.000 C 
ATOM      3  C   UNL     1       0.930  -0.744   2.419  1.00  0.00    +0.000 C 
ATOM      4  C   UNL     1       0.287  -1.051   1.060  1.00  0.00    +0.000 C 
ATOM      5  C   UNL     1      -1.214  -0.733   1.065  1.00  0.00    +0.000 C 
ATOM      6  C   UNL     1      -2.086  -1.382   2.129  1.00  0.00    +0.000 C 
ATOM      7  C   UNL     1      -3.512  -1.226   1.583  1.00  0.00    +0.000 C 
ATOM      8  C   UNL     1      -3.392  -0.696   0.124  1.00  0.00    +0.000 C 
ATOM      9  C   UNL     1      -1.929  -1.083  -0.266  1.00  0.00    +0.000 C 
ATOM     10  C   UNL     1      -1.833  -2.580  -0.647  1.00  0.00    +0.000 C 
ATOM     11  C   UNL     1      -1.274  -0.217  -1.358  1.00  0.00    +0.000 C 
ATOM     12  C   UNL     1       0.249  -0.431  -1.432  1.00  0.00    +0.000 C 
ATOM     13  C   UNL     1       0.964  -0.223  -0.073  1.00  0.00    +0.000 C 
ATOM     14  C   UNL     1       2.524  -0.433  -0.124  1.00  0.00    +0.000 C 
ATOM     15  C   UNL     1       2.863  -1.878  -0.579  1.00  0.00    +0.000 C 
ATOM     16  C   UNL     1       3.162   0.562  -1.141  1.00  0.00    +0.000 C 
ATOM     17  C   UNL     1       4.502   1.189  -0.714  1.00  0.00    +0.000 C 
ATOM     18  C   UNL     1       5.372   0.233   0.109  1.00  0.00    +0.000 C 
ATOM     19  C   UNL     1       4.637  -0.299   1.348  1.00  0.00    +0.000 C 
ENDROOT
BRANCH   8  20
ATOM     20  C   UNL     1      -4.570  -1.171  -0.772  1.00  0.00    +0.000 C 
ATOM     21  C   UNL     1      -4.455  -0.712  -2.227  1.00  0.00    +0.000 C 
BRANCH  20  22
ATOM     22  C   UNL     1      -5.973  -0.827  -0.202  1.00  0.00    +0.000 C 
BRANCH  22  23
ATOM     23  C   UNL     1      -6.557   0.571  -0.458  1.00  0.00    +0.000 C 
BRANCH  23  24
ATOM     24  C   UNL     1      -5.789   1.724   0.185  1.00  0.00    +0.000 C 
BRANCH  24  25
ATOM     25  C   UNL     1      -6.570   3.006   0.108  1.00  0.00    +0.000 C 
ATOM     26  C   UNL     1      -6.976   3.702   1.177  1.00  0.00    +0.000 C 
ENDBRANCH  24  25
ENDBRANCH  23  24
ENDBRANCH  22  23
ENDBRANCH  20  22
ENDBRANCH   8  20
BRANCH  17  27
ATOM     27  O   UNL     1       5.183   1.552  -1.914  1.00  0.00    +0.000 OA
BRANCH  27  28
ATOM     28  S   UNL     1       5.679   3.083  -2.111  1.00  0.00    +0.000 S 
ATOM     29  O   UNL     1       6.226   3.218  -3.442  1.00  0.00    +0.000 OA
ATOM     30  O   UNL     1       6.392   3.510  -0.931  1.00  0.00    +0.000 OA
BRANCH  28  31
ATOM     31  O   UNL     1       4.285   3.888  -2.163  1.00  0.00    +0.000 OA
ATOM     32  H   UNL     1       4.093   4.047  -3.111  1.00  0.00    +0.000 HD
ENDBRANCH  28  31
ENDBRANCH  27  28
ENDBRANCH  17  27
BRANCH  18  33
ATOM     33  O   UNL     1       6.529   0.922   0.580  1.00  0.00    +0.000 OA
BRANCH  33  34
ATOM     34  S   UNL     1       7.988   0.504   0.006  1.00  0.00    +0.000 S 
ATOM     35  O   UNL     1       8.992   1.257   0.721  1.00  0.00    +0.000 OA
ATOM     36  O   UNL     1       7.935   0.451  -1.436  1.00  0.00    +0.000 OA
BRANCH  34  37
ATOM     37  O   UNL     1       8.148  -1.003   0.550  1.00  0.00    +0.000 OA
ATOM     38  H   UNL     1       8.709  -0.949   1.352  1.00  0.00    +0.000 HD
ENDBRANCH  34  37
ENDBRANCH  33  34
ENDBRANCH  18  33
TORSDOF 11
