REMARK  Name = /srv/my_project/app/compsite/backup/Dave/CORINA_stuff/newPDBs/SANC00360.pdb
AUTHORGENERATED BY OPEN BABEL 2.3.2
REMARK  7 active torsions:
REMARK  status: ('A' for Active; 'I' for Inactive)
REMARK    1  A    between atoms: C_1  and  O_2
REMARK    2  A    between atoms: O_2  and  C_3
REMARK    3  A    between atoms: C_5  and  O_6
REMARK    4  A    between atoms: C_10  and  C_12
REMARK    5  A    between atoms: C_12  and  C_13
REMARK    6  A    between atoms: C_16  and  O_17
REMARK    7  A    between atoms: C_23  and  O_24
REMARK                            x       y       z     vdW  Elec       q    Type
REMARK                         _______ _______ _______ _____ _____    ______ ____
ROOT
ATOM      1  C   UNL     1      -4.213   0.006  -0.502  1.00  0.00    +0.000 A 
ATOM      2  C   UNL     1      -4.168   0.056   0.890  1.00  0.00    +0.000 A 
ATOM      3  C   UNL     1      -2.933   0.045   1.543  1.00  0.00    +0.000 A 
ATOM      4  C   UNL     1      -1.737  -0.010   0.815  1.00  0.00    +0.000 A 
ATOM      5  C   UNL     1      -0.426  -0.070   1.492  1.00  0.00    +0.000 C 
ATOM      6  O   UNL     1      -0.384  -0.014   2.720  1.00  0.00    +0.000 OA
ATOM      7  C   UNL     1       0.793  -0.262   0.615  1.00  0.00    +0.000 C 
ATOM      8  C   UNL     1       0.513   0.452  -0.702  1.00  0.00    +0.000 C 
ATOM      9  O   UNL     1      -0.640  -0.093  -1.349  1.00  0.00    +0.000 OA
ATOM     10  C   UNL     1      -1.771  -0.039  -0.578  1.00  0.00    +0.000 A 
ATOM     11  C   UNL     1      -3.010  -0.044  -1.223  1.00  0.00    +0.000 A 
ENDROOT
BRANCH   1  13
ATOM     12  C   UNL     1      -6.591   0.039  -0.577  1.00  0.00    +0.000 C 
ATOM     13  O   UNL     1      -5.349   0.002  -1.272  1.00  0.00    +0.000 OA
ENDBRANCH   1  13
BRANCH   3  14
ATOM     14  O   UNL     1      -2.971   0.082   2.912  1.00  0.00    +0.000 OA
ATOM     15  H   UNL     1      -2.045   0.057   3.245  1.00  0.00    +0.000 HD
ENDBRANCH   3  14
BRANCH  11  16
ATOM     16  O   UNL     1      -3.057  -0.087  -2.594  1.00  0.00    +0.000 OA
ATOM     17  H   UNL     1      -4.007  -0.089  -2.822  1.00  0.00    +0.000 HD
ENDBRANCH  11  16
BRANCH   7  18
ATOM     18  C   UNL     1       2.043   0.279   1.323  1.00  0.00    +0.000 C 
BRANCH  18  19
ATOM     19  C   UNL     1       3.322   0.045   0.556  1.00  0.00    +0.000 A 
ATOM     20  C   UNL     1       4.012   1.119  -0.026  1.00  0.00    +0.000 A 
ATOM     21  C   UNL     1       5.190   0.900  -0.744  1.00  0.00    +0.000 A 
ATOM     22  C   UNL     1       5.679  -0.395  -0.878  1.00  0.00    +0.000 A 
ATOM     23  C   UNL     1       5.013  -1.470  -0.305  1.00  0.00    +0.000 A 
ATOM     24  C   UNL     1       3.836  -1.252   0.413  1.00  0.00    +0.000 A 
BRANCH  22  25
ATOM     25  O   UNL     1       6.825  -0.654  -1.571  1.00  0.00    +0.000 OA
ATOM     26  H   UNL     1       7.180   0.185  -1.907  1.00  0.00    +0.000 HD
ENDBRANCH  22  25
ENDBRANCH  18  19
ENDBRANCH   7  18
TORSDOF 6
