REMARK  Name = SANCDB_01094_minRM1.pdb
AUTHORGENERATED BY OPEN BABEL 2.3.2
REMARK  1 active torsions:
REMARK  status: ('A' for Active; 'I' for Inactive)
REMARK    1  A    between atoms: C_1  and  N_2
REMARK                            x       y       z     vdW  Elec       q    Type
REMARK                         _______ _______ _______ _____ _____    ______ ____
ROOT
ATOM      1  C   UNL     1      -3.350  -2.103   0.970  1.00  0.00    +0.000 C 
ATOM      2  N   UNL     1      -2.799  -1.386  -0.181  1.00  0.00    +0.000 NA
ATOM      3  C   UNL     1      -3.634  -0.237  -0.553  1.00  0.00    +0.000 C 
ATOM      4  C   UNL     1      -3.540   0.937   0.427  1.00  0.00    +0.000 C 
ATOM      5  C   UNL     1      -2.110   1.380   0.556  1.00  0.00    +0.000 A 
ATOM      6  C   UNL     1      -1.808   2.703   0.887  1.00  0.00    +0.000 A 
ATOM      7  C   UNL     1      -0.483   3.072   0.906  1.00  0.00    +0.000 A 
ATOM      8  C   UNL     1       0.538   2.190   0.612  1.00  0.00    +0.000 A 
ATOM      9  C   UNL     1       0.298   0.853   0.301  1.00  0.00    +0.000 A 
ATOM     10  C   UNL     1      -1.068   0.451   0.307  1.00  0.00    +0.000 A 
ATOM     11  C   UNL     1      -1.378  -1.024   0.045  1.00  0.00    +0.000 C 
ATOM     12  C   UNL     1      -0.522  -1.506  -1.143  1.00  0.00    +0.000 C 
ATOM     13  C   UNL     1       0.949  -1.291  -0.836  1.00  0.00    +0.000 A 
ATOM     14  C   UNL     1       1.893  -2.227  -1.290  1.00  0.00    +0.000 A 
ATOM     15  C   UNL     1       3.212  -2.016  -0.966  1.00  0.00    +0.000 A 
ATOM     16  C   UNL     1       3.604  -0.929  -0.225  1.00  0.00    +0.000 A 
ATOM     17  C   UNL     1       2.703   0.018   0.222  1.00  0.00    +0.000 A 
ATOM     18  C   UNL     1       1.341  -0.131  -0.094  1.00  0.00    +0.000 A 
ATOM     19  O   UNL     1       4.947  -0.912  -0.001  1.00  0.00    +0.000 OA
ATOM     20  C   UNL     1       5.352  -2.109  -0.696  1.00  0.00    +0.000 C 
ATOM     21  O   UNL     1       4.254  -2.819  -1.306  1.00  0.00    +0.000 OA
ATOM     22  O   UNL     1       1.749   2.820   0.643  1.00  0.00    +0.000 OA
ATOM     23  C   UNL     1       1.378   4.161   1.006  1.00  0.00    +0.000 C 
ATOM     24  O   UNL     1      -0.039   4.332   1.174  1.00  0.00    +0.000 OA
ENDROOT
TORSDOF 0
