REMARK  Name = /srv/my_project/app/compsite/backup/Dave/CORINA_stuff/newPDBs/SANC00415.pdb
AUTHORGENERATED BY OPEN BABEL 2.3.2
REMARK  3 active torsions:
REMARK  status: ('A' for Active; 'I' for Inactive)
REMARK    1  A    between atoms: C_7  and  C_10
REMARK    2  A    between atoms: C_10  and  C_12
REMARK    3  A    between atoms: C_15  and  C_17
REMARK                            x       y       z     vdW  Elec       q    Type
REMARK                         _______ _______ _______ _____ _____    ______ ____
ROOT
ATOM      1  C   UNL     1      -0.083   2.230  -1.078  1.00  0.00    +0.000 A 
ATOM      2  N   UNL     1       0.697   3.000  -1.821  1.00  0.00    +0.000 NA
ATOM      3  C   UNL     1       1.831   2.267  -2.067  1.00  0.00    +0.000 A 
ATOM      4  C   UNL     1       1.748   1.023  -1.486  1.00  0.00    +0.000 A 
ATOM      5  N   UNL     1       0.524   1.007  -0.882  1.00  0.00    +0.000 N 
ATOM      6  H   UNL     1       0.113   0.234  -0.384  1.00  0.00    +0.000 HD
ENDROOT
BRANCH   4   7
ATOM      7  C   UNL     1       2.796  -0.117  -1.509  1.00  0.00    +0.000 A 
ATOM      8  C   UNL     1       4.008  -0.002  -2.151  1.00  0.00    +0.000 A 
ATOM      9  N   UNL     1       4.691  -1.175  -1.978  1.00  0.00    +0.000 N 
ATOM     10  C   UNL     1       3.942  -2.054  -1.230  1.00  0.00    +0.000 A 
ATOM     11  C   UNL     1       2.736  -1.417  -0.918  1.00  0.00    +0.000 A 
ATOM     12  C   UNL     1       1.792  -2.134  -0.150  1.00  0.00    +0.000 A 
ATOM     13  C   UNL     1       2.080  -3.439   0.274  1.00  0.00    +0.000 A 
ATOM     14  C   UNL     1       3.293  -4.034  -0.058  1.00  0.00    +0.000 A 
ATOM     15  C   UNL     1       4.250  -3.358  -0.816  1.00  0.00    +0.000 A 
ATOM     16 BR   UNL     1       3.655  -5.796   0.529  1.00  0.00    +0.000 Br
ATOM     17  H   UNL     1       5.612  -1.372  -2.345  1.00  0.00    +0.000 HD
ENDBRANCH   4   7
BRANCH   1  18
ATOM     18  C   UNL     1      -1.406   2.620  -0.605  1.00  0.00    +0.000 C 
ATOM     19  O   UNL     1      -2.128   3.433  -1.175  1.00  0.00    +0.000 OA
BRANCH  18  26
ATOM     20  C   UNL     1      -5.596   1.124   0.826  1.00  0.00    +0.000 A 
ATOM     21  C   UNL     1      -5.548   0.523   2.081  1.00  0.00    +0.000 A 
ATOM     22  C   UNL     1      -4.345   0.419   2.783  1.00  0.00    +0.000 A 
ATOM     23  C   UNL     1      -3.192   0.936   2.179  1.00  0.00    +0.000 A 
ATOM     24  C   UNL     1      -3.205   1.540   0.921  1.00  0.00    +0.000 A 
ATOM     25  C   UNL     1      -4.435   1.635   0.236  1.00  0.00    +0.000 A 
ATOM     26  C   UNL     1      -1.859   1.933   0.613  1.00  0.00    +0.000 A 
ATOM     27  C   UNL     1      -1.088   1.579   1.711  1.00  0.00    +0.000 A 
ATOM     28  N   UNL     1      -1.899   0.985   2.640  1.00  0.00    +0.000 N 
ATOM     29  H   UNL     1      -1.605   0.650   3.549  1.00  0.00    +0.000 HD
ENDBRANCH  18  26
ENDBRANCH   1  18
TORSDOF 3
