REMARK  Name = SANC00490.pdb
AUTHORGENERATED BY OPEN BABEL 2.3.0
REMARK  13 active torsions:
REMARK  status: ('A' for Active; 'I' for Inactive)
REMARK    1  A    between atoms: C_1  and  C_48
REMARK    2  A    between atoms: C_2  and  C_49
REMARK    3  A    between atoms: C_3  and  C_57
REMARK    4  A    between atoms: C_4  and  C_57
REMARK    5  A    between atoms: C_5  and  C_58
REMARK    6  A    between atoms: C_6  and  C_59
REMARK    7  A    between atoms: C_7  and  C_60
REMARK    8  A    between atoms: C_8  and  C_61
REMARK    9  A    between atoms: O_10  and  C_46
REMARK   10  A    between atoms: O_11  and  C_47
REMARK   11  A    between atoms: O_12  and  C_58
REMARK   12  A    between atoms: O_13  and  C_62
REMARK   13  A    between atoms: O_14  and  C_65
REMARK                            x       y       z     vdW  Elec       q    Type
REMARK                         _______ _______ _______ _____ _____    ______ ____
ROOT
ATOM      1  C   UNL     1     -10.580  -0.624  -2.053  1.00  0.00    +0.000 C 
ATOM      2  C   UNL     1      10.855  -0.305   1.050  1.00  0.00    +0.000 C 
ATOM      3  C   UNL     1     -11.996   4.189   0.341  1.00  0.00    +0.000 C 
ATOM      4  C   UNL     1      -9.637   4.221   1.153  1.00  0.00    +0.000 C 
ATOM      5  C   UNL     1      12.206   4.385   2.535  1.00  0.00    +0.000 C 
ATOM      6  C   UNL     1       3.336  -2.976  -1.430  1.00  0.00    +0.000 C 
ATOM      7  C   UNL     1      -3.605  -4.052   0.692  1.00  0.00    +0.000 C 
ATOM      8  C   UNL     1       8.026  -2.443  -1.226  1.00  0.00    +0.000 C 
ATOM      9  O   UNL     1      -8.311  -2.711  -1.524  1.00  0.00    +0.000 OA
ATOM     10  C   UNL     1      -8.506  -0.843   2.353  1.00  0.00    +0.000 C 
ATOM     11  C   UNL     1       7.456   0.889  -2.292  1.00  0.00    +0.000 C 
ATOM     12  C   UNL     1      -9.856  -0.598   1.777  1.00  0.00    +0.000 C 
ATOM     13  C   UNL     1       3.359  -0.585  -3.488  1.00  0.00    +0.000 C 
ATOM     14  C   UNL     1      -4.285  -2.109   3.257  1.00  0.00    +0.000 C 
ATOM     15  C   UNL     1       4.755  -0.020  -3.248  1.00  0.00    +0.000 C 
ATOM     16  C   UNL     1      -5.685  -1.507   3.077  1.00  0.00    +0.000 C 
ATOM     17  C   UNL     1      12.218   2.897   0.514  1.00  0.00    +0.000 C 
ATOM     18  C   UNL     1      11.259   2.290  -0.506  1.00  0.00    +0.000 C 
ATOM     19  C   UNL     1      10.060   4.030   1.236  1.00  0.00    +0.000 C 
ATOM     20  C   UNL     1      -7.765   0.463  -0.706  1.00  0.00    +0.000 C 
ATOM     21  C   UNL     1      -6.104  -2.246  -0.755  1.00  0.00    +0.000 C 
ATOM     22  C   UNL     1       1.119  -1.126  -2.461  1.00  0.00    +0.000 C 
ATOM     23  C   UNL     1      -1.936  -2.131   2.254  1.00  0.00    +0.000 C 
ATOM     24  C   UNL     1       2.413  -1.313   0.225  1.00  0.00    +0.000 C 
ATOM     25  C   UNL     1      -3.243  -1.831  -0.424  1.00  0.00    +0.000 C 
ATOM     26  C   UNL     1       5.500  -1.539   0.298  1.00  0.00    +0.000 C 
ATOM     27  C   UNL     1     -10.100   3.746  -1.299  1.00  0.00    +0.000 C 
ATOM     28  N   UNL     1       0.205  -1.723   1.162  1.00  0.00    +0.000 NA
ATOM     29  N   UNL     1      -1.024  -1.476  -1.365  1.00  0.00    +0.000 NA
ATOM     30  O   UNL     1       9.672   2.664   1.341  1.00  0.00    +0.000 OA
ATOM     31  O   UNL     1      -8.573   1.555  -0.296  1.00  0.00    +0.000 OA
ATOM     32  O   UNL     1       8.864   2.248  -0.842  1.00  0.00    +0.000 OA
ATOM     33  O   UNL     1     -10.690   2.174   0.403  1.00  0.00    +0.000 OA
ATOM     34  C   UNL     1      -7.604  -2.022  -0.787  1.00  0.00    +0.000 C 
ATOM     35  C   UNL     1      -7.558  -0.968   1.414  1.00  0.00    +0.000 C 
ATOM     36  C   UNL     1       6.901  -0.261  -1.882  1.00  0.00    +0.000 C 
ATOM     37  C   UNL     1       0.319  -1.350  -1.209  1.00  0.00    +0.000 A 
ATOM     38  C   UNL     1      -1.137  -1.837   1.010  1.00  0.00    +0.000 A 
ATOM     39  C   UNL     1       0.928  -1.484   0.038  1.00  0.00    +0.000 A 
ATOM     40  C   UNL     1      -1.745  -1.726  -0.244  1.00  0.00    +0.000 A 
ATOM     41  C   UNL     1       6.906  -0.925   0.478  1.00  0.00    +0.000 C 
ATOM     42  C   UNL     1     -10.253   2.346  -1.870  1.00  0.00    +0.000 C 
ATOM     43  C   UNL     1     -10.502   0.002  -0.649  1.00  0.00    +0.000 C 
ATOM     44  C   UNL     1       9.666   0.437   0.444  1.00  0.00    +0.000 C 
ATOM     45  C   UNL     1       8.800   1.122  -1.706  1.00  0.00    +0.000 C 
ATOM     46  C   UNL     1       2.550  -0.640  -2.187  1.00  0.00    +0.000 C 
ATOM     47  C   UNL     1      -3.424  -1.835   2.033  1.00  0.00    +0.000 C 
ATOM     48  C   UNL     1       5.521  -0.804  -2.170  1.00  0.00    +0.000 C 
ATOM     49  C   UNL     1      -6.075  -1.233   1.599  1.00  0.00    +0.000 C 
ATOM     50  C   UNL     1      -9.668  -0.917   0.283  1.00  0.00    +0.000 C 
ATOM     51  C   UNL     1       4.697  -0.864  -0.850  1.00  0.00    +0.000 C 
ATOM     52  C   UNL     1     -10.601   3.593   0.143  1.00  0.00    +0.000 C 
ATOM     53  C   UNL     1      11.596   4.152   1.152  1.00  0.00    +0.000 C 
ATOM     54  C   UNL     1       3.259  -1.470  -1.071  1.00  0.00    +0.000 C 
ATOM     55  C   UNL     1      -3.981  -2.542   0.749  1.00  0.00    +0.000 C 
ATOM     56  C   UNL     1       7.756  -0.971  -0.833  1.00  0.00    +0.000 C 
ATOM     57  C   UNL     1      -5.577  -2.398   0.684  1.00  0.00    +0.000 C 
ATOM     58  C   UNL     1       9.889   1.933   0.126  1.00  0.00    +0.000 C 
ATOM     59  C   UNL     1      -8.141  -0.836   0.019  1.00  0.00    +0.000 C 
ATOM     60  C   UNL     1       9.111  -0.136  -0.869  1.00  0.00    +0.000 C 
ATOM     61  C   UNL     1      -9.963   1.464  -0.636  1.00  0.00    +0.000 C 
ENDROOT
BRANCH  41  62
ATOM     62  O   UNL     1       6.702   0.417   0.926  1.00  0.00    +0.000 OA
ATOM     63  H   UNL     1       6.294   0.389   1.808  1.00  0.00    +0.000 HD
ENDBRANCH  41  62
BRANCH  42  64
ATOM     64  O   UNL     1     -11.585   2.217  -2.375  1.00  0.00    +0.000 OA
ATOM     65  H   UNL     1     -12.175   2.094  -1.610  1.00  0.00    +0.000 HD
ENDBRANCH  42  64
BRANCH  53  66
ATOM     66  O   UNL     1      11.937   5.297   0.359  1.00  0.00    +0.000 OA
ATOM     67  H   UNL     1      11.559   5.174  -0.529  1.00  0.00    +0.000 HD
ENDBRANCH  53  66
BRANCH  57  68
ATOM     68  O   UNL     1      -6.170  -3.594   1.238  1.00  0.00    +0.000 OA
ATOM     69  H   UNL     1      -6.226  -4.286   0.554  1.00  0.00    +0.000 HD
ENDBRANCH  57  68
BRANCH  60  70
ATOM     70  O   UNL     1      10.159  -0.859  -1.551  1.00  0.00    +0.000 OA
ATOM     71  H   UNL     1       9.873  -0.997  -2.472  1.00  0.00    +0.000 HD
ENDBRANCH  60  70
TORSDOF 5
