REMARK  Name = SANCDB_00760_minRM1.pdb
AUTHORGENERATED BY OPEN BABEL 2.3.2
REMARK  5 active torsions:
REMARK  status: ('A' for Active; 'I' for Inactive)
REMARK    1  A    between atoms: C_12  and  C_13
REMARK    2  A    between atoms: C_12  and  O_14
REMARK    3  A    between atoms: C_15  and  C_16
REMARK    4  A    between atoms: C_18  and  C_19
REMARK    5  A    between atoms: C_18  and  C_20
REMARK                            x       y       z     vdW  Elec       q    Type
REMARK                         _______ _______ _______ _____ _____    ______ ____
ROOT
ATOM      1  C   UNL     1       2.102   1.167   0.614  1.00  0.00    +0.000 C 
ATOM      2  C   UNL     1       3.052   2.021  -0.209  1.00  0.00    +0.000 C 
ATOM      3  C   UNL     1       4.408   1.655   0.353  1.00  0.00    +0.000 C 
ATOM      4  N   UNL     1       4.344   0.215   0.622  1.00  0.00    +0.000 NA
ATOM      5  C   UNL     1       4.673  -0.597  -0.568  1.00  0.00    +0.000 C 
ATOM      6  C   UNL     1       3.627  -1.653  -0.614  1.00  0.00    +0.000 C 
ATOM      7  C   UNL     1       2.636  -1.385   0.244  1.00  0.00    +0.000 C 
ATOM      8  C   UNL     1       1.487  -2.281   0.577  1.00  0.00    +0.000 C 
ATOM      9  O   UNL     1       0.260  -1.693   0.143  1.00  0.00    +0.000 OA
ATOM     10  C   UNL     1      -0.840  -2.476   0.322  1.00  0.00    +0.000 C 
ATOM     11  O   UNL     1      -0.812  -3.602   0.804  1.00  0.00    +0.000 OA
ATOM     12  C   UNL     1      -2.118  -1.773  -0.193  1.00  0.00    +0.000 C 
ATOM     13  C   UNL     1      -3.354  -2.580   0.236  1.00  0.00    +0.000 C 
ATOM     14  C   UNL     1      -2.229  -0.295   0.305  1.00  0.00    +0.000 C 
ATOM     15  C   UNL     1      -2.147  -0.178   1.835  1.00  0.00    +0.000 C 
ATOM     16  O   UNL     1      -3.476   0.332  -0.142  1.00  0.00    +0.000 OA
ATOM     17  C   UNL     1      -2.763   1.444  -0.752  1.00  0.00    +0.000 C 
ATOM     18  C   UNL     1      -3.142   1.544  -2.230  1.00  0.00    +0.000 C 
ATOM     19  C   UNL     1      -3.089   2.740  -0.018  1.00  0.00    +0.000 C 
ATOM     20  C   UNL     1      -1.405   0.750  -0.512  1.00  0.00    +0.000 C 
ATOM     21  C   UNL     1      -0.238   1.450   0.203  1.00  0.00    +0.000 C 
ATOM     22  O   UNL     1      -0.306   2.362   1.020  1.00  0.00    +0.000 OA
ATOM     23  O   UNL     1       0.941   0.875  -0.164  1.00  0.00    +0.000 OA
ATOM     24  C   UNL     1       2.919  -0.101   0.974  1.00  0.00    +0.000 C 
ENDROOT
BRANCH  12  25
ATOM     25  O   UNL     1      -2.090  -1.793  -1.635  1.00  0.00    +0.000 OA
ATOM     26  H   UNL     1      -2.186  -2.719  -1.920  1.00  0.00    +0.000 HD
ENDBRANCH  12  25
TORSDOF 1
