REMARK  Name = /srv/my_project/app/compsite/backup/Dave/CORINA_stuff/newPDBs/SANC00335.pdb
AUTHORGENERATED BY OPEN BABEL 2.3.2
REMARK  7 active torsions:
REMARK  status: ('A' for Active; 'I' for Inactive)
REMARK    1  A    between atoms: C_1  and  O_2
REMARK    2  A    between atoms: O_2  and  C_3
REMARK    3  A    between atoms: C_6  and  C_7
REMARK    4  A    between atoms: C_11  and  O_12
REMARK    5  A    between atoms: C_14  and  O_15
REMARK    6  A    between atoms: C_19  and  O_20
REMARK    7  A    between atoms: C_22  and  O_23
REMARK                            x       y       z     vdW  Elec       q    Type
REMARK                         _______ _______ _______ _____ _____    ______ ____
ROOT
ATOM      1  C   UNL     1       0.194  -0.339  -0.338  1.00  0.00    +0.000 A 
ATOM      2  O   UNL     1       1.019   0.337   0.555  1.00  0.00    +0.000 OA
ATOM      3  C   UNL     1       2.377   0.292   0.370  1.00  0.00    +0.000 A 
ATOM      4  C   UNL     1       3.166   0.974   1.295  1.00  0.00    +0.000 A 
ATOM      5  C   UNL     1       4.552   0.964   1.154  1.00  0.00    +0.000 A 
ATOM      6  C   UNL     1       5.162   0.283   0.104  1.00  0.00    +0.000 A 
ATOM      7  C   UNL     1       4.368  -0.396  -0.817  1.00  0.00    +0.000 A 
ATOM      8  C   UNL     1       2.976  -0.392  -0.683  1.00  0.00    +0.000 A 
ATOM      9  C   UNL     1       2.109  -1.093  -1.631  1.00  0.00    +0.000 A 
ATOM     10  O   UNL     1       2.563  -1.714  -2.591  1.00  0.00    +0.000 OA
ATOM     11  C   UNL     1       0.648  -1.033  -1.398  1.00  0.00    +0.000 A 
ENDROOT
BRANCH   1  15
ATOM     12  C   UNL     1      -3.972   0.132   0.672  1.00  0.00    +0.000 A 
ATOM     13  C   UNL     1      -3.102   1.224   0.690  1.00  0.00    +0.000 A 
ATOM     14  C   UNL     1      -1.752   1.060   0.352  1.00  0.00    +0.000 A 
ATOM     15  C   UNL     1      -1.243  -0.195  -0.014  1.00  0.00    +0.000 A 
ATOM     16  C   UNL     1      -2.116  -1.291  -0.021  1.00  0.00    +0.000 A 
ATOM     17  C   UNL     1      -3.463  -1.122   0.313  1.00  0.00    +0.000 A 
BRANCH  12  19
ATOM     18  C   UNL     1      -5.846   1.443   1.347  1.00  0.00    +0.000 C 
ATOM     19  O   UNL     1      -5.305   0.182   0.982  1.00  0.00    +0.000 OA
ENDBRANCH  12  19
BRANCH  17  20
ATOM     20  O   UNL     1      -4.305  -2.204   0.293  1.00  0.00    +0.000 OA
ATOM     21  H   UNL     1      -3.824  -2.973  -0.048  1.00  0.00    +0.000 HD
ENDBRANCH  17  20
ENDBRANCH   1  15
BRANCH   5  22
ATOM     22  O   UNL     1       5.286   1.644   2.080  1.00  0.00    +0.000 OA
ATOM     23  H   UNL     1       6.230   1.549   1.865  1.00  0.00    +0.000 HD
ENDBRANCH   5  22
BRANCH   7  24
ATOM     24  O   UNL     1       5.019  -1.048  -1.829  1.00  0.00    +0.000 OA
ATOM     25  H   UNL     1       4.349  -1.479  -2.405  1.00  0.00    +0.000 HD
ENDBRANCH   7  24
BRANCH  11  26
ATOM     26  O   UNL     1      -0.162  -1.688  -2.308  1.00  0.00    +0.000 OA
ATOM     27  H   UNL     1       0.450  -2.060  -2.978  1.00  0.00    +0.000 HD
ENDBRANCH  11  26
TORSDOF 6
