REMARK  Name = /srv/my_project/app/compsite/backup/Dave/CORINA_stuff/newPDBs/SANC00171.pdb
AUTHORGENERATED BY OPEN BABEL 2.3.2
REMARK  10 active torsions:
REMARK  status: ('A' for Active; 'I' for Inactive)
REMARK    1  A    between atoms: C_5  and  C_7
REMARK    2  A    between atoms: C_9  and  C_10
REMARK    3  A    between atoms: C_12  and  O_14
REMARK    4  A    between atoms: C_19  and  O_21
REMARK    5  A    between atoms: O_21  and  C_22
REMARK    6  A    between atoms: C_22  and  C_23
REMARK    7  A    between atoms: C_28  and  O_30
REMARK    8  A    between atoms: O_30  and  C_31
REMARK    9  A    between atoms: C_31  and  C_32
REMARK   10  A    between atoms: C_36  and  C_37
REMARK                            x       y       z     vdW  Elec       q    Type
REMARK                         _______ _______ _______ _____ _____    ______ ____
ROOT
ATOM      1  C   UNL     1      -2.245   0.671  -0.118  1.00  0.00    +0.000 C 
ATOM      2  C   UNL     1      -3.096   1.775   0.504  1.00  0.00    +0.000 C 
ATOM      3  C   UNL     1      -4.549   1.315   0.284  1.00  0.00    +0.000 C 
ATOM      4  C   UNL     1      -4.466  -0.095  -0.356  1.00  0.00    +0.000 C 
ATOM      5  C   UNL     1      -3.074  -0.606   0.112  1.00  0.00    +0.000 C 
ATOM      6  C   UNL     1      -3.125  -1.078   1.587  1.00  0.00    +0.000 C 
ATOM      7  C   UNL     1      -2.460  -1.697  -0.768  1.00  0.00    +0.000 C 
ATOM      8  C   UNL     1      -0.975  -1.944  -0.438  1.00  0.00    +0.000 C 
ATOM      9  C   UNL     1      -0.090  -0.656  -0.411  1.00  0.00    +0.000 C 
ATOM     10  C   UNL     1      -0.785   0.537   0.336  1.00  0.00    +0.000 C 
ATOM     11  C   UNL     1       0.004   1.851   0.139  1.00  0.00    +0.000 C 
ATOM     12  C   UNL     1       1.488   1.656   0.217  1.00  0.00    +0.000 C 
ATOM     13  C   UNL     1       2.127   0.472   0.212  1.00  0.00    +0.000 C 
ATOM     14  C   UNL     1       3.640   0.481   0.108  1.00  0.00    +0.000 C 
ATOM     15  C   UNL     1       4.319  -0.857   0.396  1.00  0.00    +0.000 C 
ATOM     16  C   UNL     1       3.681  -2.005  -0.391  1.00  0.00    +0.000 C 
ATOM     17  C   UNL     1       2.208  -1.806  -0.772  1.00  0.00    +0.000 C 
ATOM     18  C   UNL     1       1.387  -0.873   0.157  1.00  0.00    +0.000 C 
ATOM     19  C   UNL     1       1.333  -1.488   1.579  1.00  0.00    +0.000 C 
ENDROOT
BRANCH   4  20
ATOM     20  C   UNL     1      -5.616  -1.043  -0.129  1.00  0.00    +0.000 C 
ATOM     21  C   UNL     1      -6.769  -0.786   0.501  1.00  0.00    +0.000 C 
ENDBRANCH   4  20
BRANCH   8  22
ATOM     22  O   UNL     1      -0.481  -2.845  -1.428  1.00  0.00    +0.000 OA
ATOM     23  H   UNL     1      -1.026  -3.651  -1.396  1.00  0.00    +0.000 HD
ENDBRANCH   8  22
BRANCH  11  24
ATOM     24  O   UNL     1      -0.267   2.373  -1.177  1.00  0.00    +0.000 OA
BRANCH  24  25
ATOM     25  C   UNL     1      -0.324   3.725  -1.296  1.00  0.00    +0.000 C 
ATOM     26  C   UNL     1      -0.614   4.097  -2.718  1.00  0.00    +0.000 C 
ATOM     27  O   UNL     1      -0.171   4.533  -0.391  1.00  0.00    +0.000 OA
ENDBRANCH  24  25
ENDBRANCH  11  24
BRANCH  15  28
ATOM     28  O   UNL     1       5.713  -0.804   0.015  1.00  0.00    +0.000 OA
BRANCH  28  29
ATOM     29  C   UNL     1       6.559  -0.218   0.905  1.00  0.00    +0.000 C 
ATOM     30  C   UNL     1       7.957  -0.238   0.367  1.00  0.00    +0.000 C 
ATOM     31  O   UNL     1       6.242   0.259   1.985  1.00  0.00    +0.000 OA
ENDBRANCH  28  29
ENDBRANCH  15  28
TORSDOF 6
