REMARK  Name = /srv/my_project/app/compsite/backup/Dave/CORINA_stuff/newPDBs/SANC00538.pdb
AUTHORGENERATED BY OPEN BABEL 2.3.2
REMARK  7 active torsions:
REMARK  status: ('A' for Active; 'I' for Inactive)
REMARK    1  A    between atoms: C_1  and  C_2
REMARK    2  A    between atoms: C_6  and  C_7
REMARK    3  A    between atoms: C_6  and  O_8
REMARK    4  A    between atoms: C_11  and  O_12
REMARK    5  A    between atoms: C_11  and  C_13
REMARK    6  A    between atoms: C_13  and  C_14
REMARK    7  A    between atoms: C_13  and  C_15
REMARK                            x       y       z     vdW  Elec       q    Type
REMARK                         _______ _______ _______ _____ _____    ______ ____
ROOT
ATOM      1  C   UNL     1       3.789  -0.252   1.418  1.00  0.00    +0.000 C 
ATOM      2  C   UNL     1       3.784   0.263   0.003  1.00  0.00    +0.000 C 
ATOM      3  C   UNL     1       3.597  -0.510  -1.093  1.00  0.00    +0.000 C 
ATOM      4  C   UNL     1       2.863  -1.847  -1.097  1.00  0.00    +0.000 C 
ATOM      5  C   UNL     1       1.398  -1.451  -0.875  1.00  0.00    +0.000 C 
ATOM      6  C   UNL     1       0.238  -2.444  -0.962  1.00  0.00    +0.000 C 
ATOM      7  C   UNL     1       0.024  -2.968  -2.379  1.00  0.00    +0.000 C 
ATOM      8  C   UNL     1      -1.033  -1.782  -0.405  1.00  0.00    +0.000 C 
ATOM      9  C   UNL     1      -1.318  -0.459  -0.441  1.00  0.00    +0.000 C 
ATOM     10  C   UNL     1      -2.416   0.353   0.231  1.00  0.00    +0.000 C 
ATOM     11  C   UNL     1      -1.813   1.485   1.141  1.00  0.00    +0.000 C 
ATOM     12  C   UNL     1      -1.224   2.766   0.486  1.00  0.00    +0.000 C 
ATOM     13  C   UNL     1       0.203   2.770   0.050  1.00  0.00    +0.000 C 
ATOM     14  C   UNL     1       1.149   1.839   0.105  1.00  0.00    +0.000 C 
ATOM     15  C   UNL     1       2.341   2.231  -0.684  1.00  0.00    +0.000 C 
ATOM     16  C   UNL     1       3.716   1.789  -0.126  1.00  0.00    +0.000 C 
ATOM     17  O   UNL     1       2.181   3.641  -0.806  1.00  0.00    +0.000 OA
ATOM     18  C   UNL     1       0.870   3.945  -0.544  1.00  0.00    +0.000 C 
ATOM     19  O   UNL     1       0.350   5.030  -0.731  1.00  0.00    +0.000 OA
ENDROOT
BRANCH  10  20
ATOM     20  C   UNL     1      -3.455  -0.520   1.025  1.00  0.00    +0.000 C 
ATOM     21  C   UNL     1      -4.790   0.203   1.279  1.00  0.00    +0.000 C 
ATOM     22  C   UNL     1      -2.921  -1.052   2.363  1.00  0.00    +0.000 C 
ENDBRANCH  10  20
BRANCH   6  23
ATOM     23  O   UNL     1       0.552  -3.538  -0.102  1.00  0.00    +0.000 OA
ATOM     24  H   UNL     1      -0.111  -4.233  -0.249  1.00  0.00    +0.000 HD
ENDBRANCH   6  23
BRANCH  10  25
ATOM     25  O   UNL     1      -3.107   0.982  -0.853  1.00  0.00    +0.000 OA
ATOM     26  H   UNL     1      -3.463   0.273  -1.417  1.00  0.00    +0.000 HD
ENDBRANCH  10  25
TORSDOF 3
