REMARK  Name = /srv/my_project/app/compsite/backup/Dave/CORINA_stuff/newPDBs/SANC00146.pdb
AUTHORGENERATED BY OPEN BABEL 2.3.2
REMARK  3 active torsions:
REMARK  status: ('A' for Active; 'I' for Inactive)
REMARK    1  A    between atoms: C_2  and  C_3
REMARK    2  A    between atoms: C_16  and  C_17
REMARK    3  A    between atoms: C_21  and  C_22
REMARK                            x       y       z     vdW  Elec       q    Type
REMARK                         _______ _______ _______ _____ _____    ______ ____
ROOT
ATOM      1  C   UNL     1       3.471  -0.480   0.527  1.00  0.00    +0.000 C 
ATOM      2  C   UNL     1       3.514   0.555   1.679  1.00  0.00    +0.000 C 
ATOM      3  C   UNL     1       2.065   1.044   1.873  1.00  0.00    +0.000 C 
ATOM      4  C   UNL     1       1.240   0.143   0.958  1.00  0.00    +0.000 C 
ATOM      5  C   UNL     1      -0.166   0.589   0.540  1.00  0.00    +0.000 C 
ATOM      6  C   UNL     1      -1.037   0.904   1.764  1.00  0.00    +0.000 C 
ATOM      7  C   UNL     1      -2.478   1.230   1.382  1.00  0.00    +0.000 C 
ATOM      8  C   UNL     1      -3.082   0.106   0.538  1.00  0.00    +0.000 C 
ATOM      9  C   UNL     1      -4.573   0.339   0.279  1.00  0.00    +0.000 C 
ATOM     10  C   UNL     1      -5.166  -0.815  -0.499  1.00  0.00    +0.000 C 
ATOM     11  O   UNL     1      -6.365  -1.079  -0.464  1.00  0.00    +0.000 OA
ATOM     12  C   UNL     1      -4.272  -1.614  -1.374  1.00  0.00    +0.000 C 
ATOM     13  C   UNL     1      -2.973  -1.308  -1.506  1.00  0.00    +0.000 C 
ATOM     14  C   UNL     1      -2.277  -0.164  -0.775  1.00  0.00    +0.000 C 
ATOM     15  C   UNL     1      -2.298   1.044  -1.741  1.00  0.00    +0.000 C 
ATOM     16  C   UNL     1      -0.805  -0.531  -0.350  1.00  0.00    +0.000 C 
ATOM     17  C   UNL     1       0.135  -0.926  -1.524  1.00  0.00    +0.000 C 
ATOM     18  C   UNL     1       1.574  -1.246  -1.079  1.00  0.00    +0.000 C 
ATOM     19  C   UNL     1       2.176  -0.108  -0.244  1.00  0.00    +0.000 C 
ATOM     20  C   UNL     1       2.394   1.139  -1.142  1.00  0.00    +0.000 C 
ENDROOT
BRANCH   1  22
ATOM     21  C   UNL     1       5.447  -1.642  -0.499  1.00  0.00    +0.000 C 
ATOM     22  C   UNL     1       4.743  -0.525  -0.274  1.00  0.00    +0.000 C 
ENDBRANCH   1  22
TORSDOF 1
