REMARK  Name = /srv/my_project/app/compsite/backup/Dave/CORINA_stuff/newPDBs/SANC00601.pdb
AUTHORGENERATED BY OPEN BABEL 2.3.2
REMARK  16 active torsions:
REMARK  status: ('A' for Active; 'I' for Inactive)
REMARK    1  A    between atoms: C_7  and  O_8
REMARK    2  A    between atoms: C_11  and  N_13
REMARK    3  A    between atoms: C_14  and  C_16
REMARK    4  A    between atoms: C_22  and  C_23
REMARK    5  A    between atoms: C_22  and  C_24
REMARK    6  A    between atoms: C_24  and  O_25
REMARK    7  A    between atoms: C_30  and  C_31
REMARK    8  A    between atoms: C_32  and  C_33
REMARK    9  A    between atoms: C_35  and  O_37
REMARK   10  A    between atoms: O_37  and  C_38
REMARK   11  A    between atoms: C_38  and  C_39
REMARK   12  A    between atoms: C_41  and  C_43
REMARK   13  A    between atoms: C_43  and  C_45
REMARK   14  A    between atoms: C_43  and  N_46
REMARK   15  A    between atoms: N_46  and  C_47
REMARK   16  A    between atoms: N_46  and  C_48
REMARK                            x       y       z     vdW  Elec       q    Type
REMARK                         _______ _______ _______ _____ _____    ______ ____
ROOT
ATOM      1  C   UNL     1      -0.993   0.338   0.627  1.00  0.00    +0.000 C 
ATOM      2  C   UNL     1      -0.112  -0.141   1.795  1.00  0.00    +0.000 C 
ATOM      3  C   UNL     1       1.272  -0.643   1.360  1.00  0.00    +0.000 C 
ATOM      4  C   UNL     1       2.325   0.433   1.008  1.00  0.00    +0.000 C 
ATOM      5  C   UNL     1       1.860   1.402  -0.136  1.00  0.00    +0.000 C 
ATOM      6  C   UNL     1       2.989   2.288  -0.616  1.00  0.00    +0.000 C 
ATOM      7  C   UNL     1       4.272   2.155  -0.256  1.00  0.00    +0.000 C 
ATOM      8  C   UNL     1       4.774   1.046   0.622  1.00  0.00    +0.000 C 
ATOM      9  C   UNL     1       3.783  -0.168   0.744  1.00  0.00    +0.000 C 
ATOM     10  C   UNL     1       3.819  -1.046  -0.533  1.00  0.00    +0.000 C 
ATOM     11  C   UNL     1       0.697   2.327   0.341  1.00  0.00    +0.000 C 
ATOM     12  C   UNL     1      -0.718   1.794   0.223  1.00  0.00    +0.000 C 
ATOM     13  C   UNL     1      -1.702   2.613  -0.224  1.00  0.00    +0.000 C 
ATOM     14  C   UNL     1      -3.156   2.224  -0.399  1.00  0.00    +0.000 C 
ATOM     15  C   UNL     1      -3.337   0.700  -0.338  1.00  0.00    +0.000 C 
ATOM     16  C   UNL     1      -2.863   0.116  -1.704  1.00  0.00    +0.000 C 
ATOM     17  C   UNL     1      -2.523   0.154   0.900  1.00  0.00    +0.000 C 
ATOM     18  C   UNL     1      -2.884   0.834   2.266  1.00  0.00    +0.000 C 
ATOM     19  C   UNL     1      -3.030  -1.300   0.979  1.00  0.00    +0.000 C 
ATOM     20  C   UNL     1      -4.509  -1.249   0.501  1.00  0.00    +0.000 C 
ATOM     21  C   UNL     1      -4.770   0.200   0.005  1.00  0.00    +0.000 C 
ENDROOT
BRANCH   8  22
ATOM     22  N   UNL     1       6.061   0.661   0.063  1.00  0.00    +0.000 N 
ATOM     23  C   UNL     1       7.216   0.623   0.814  1.00  0.00    +0.000 C 
ATOM     24  O   UNL     1       7.255   0.899   2.007  1.00  0.00    +0.000 OA
ATOM     25  H   UNL     1       6.109   0.535  -0.939  1.00  0.00    +0.000 HD
BRANCH  23  26
ATOM     26  C   UNL     1       8.461   0.239   0.093  1.00  0.00    +0.000 A 
ATOM     27  C   UNL     1       8.447  -0.606  -1.025  1.00  0.00    +0.000 A 
ATOM     28  C   UNL     1       9.644  -0.938  -1.664  1.00  0.00    +0.000 A 
ATOM     29  C   UNL     1      10.855  -0.437  -1.187  1.00  0.00    +0.000 A 
ATOM     30  C   UNL     1      10.876   0.391  -0.066  1.00  0.00    +0.000 A 
ATOM     31  C   UNL     1       9.683   0.725   0.577  1.00  0.00    +0.000 A 
ENDBRANCH  23  26
ENDBRANCH   8  22
BRANCH   5  32
ATOM     32  O   UNL     1       1.477   0.654  -1.290  1.00  0.00    +0.000 OA
ATOM     33  H   UNL     1       0.805   1.169  -1.769  1.00  0.00    +0.000 HD
ENDBRANCH   5  32
BRANCH  21  34
ATOM     34  C   UNL     1      -5.917   0.403  -1.037  1.00  0.00    +0.000 C 
ATOM     35  C   UNL     1      -7.293   0.355  -0.344  1.00  0.00    +0.000 C 
BRANCH  34  36
ATOM     36  N   UNL     1      -5.823  -0.443  -2.247  1.00  0.00    +0.000 NA
ATOM     37  C   UNL     1      -6.616  -1.675  -2.223  1.00  0.00    +0.000 C 
ATOM     38  C   UNL     1      -6.173   0.316  -3.455  1.00  0.00    +0.000 C 
ENDBRANCH  34  36
ENDBRANCH  21  34
BRANCH   9  39
ATOM     39  C   UNL     1       4.279  -1.022   1.951  1.00  0.00    +0.000 C 
BRANCH  39  40
ATOM     40  O   UNL     1       3.667  -2.305   2.033  1.00  0.00    +0.000 OA
ATOM     41  H   UNL     1       4.042  -2.857   1.327  1.00  0.00    +0.000 HD
ENDBRANCH  39  40
ENDBRANCH   9  39
BRANCH  20  42
ATOM     42  O   UNL     1      -5.406  -1.533   1.586  1.00  0.00    +0.000 OA
BRANCH  42  43
ATOM     43  C   UNL     1      -5.579  -2.850   1.881  1.00  0.00    +0.000 C 
ATOM     44  C   UNL     1      -6.533  -2.991   3.028  1.00  0.00    +0.000 C 
ATOM     45  O   UNL     1      -5.047  -3.789   1.308  1.00  0.00    +0.000 OA
ENDBRANCH  42  43
ENDBRANCH  20  42
TORSDOF 9
