REMARK  Name = SANCDB_00928_minRM1.pdb
AUTHORGENERATED BY OPEN BABEL 2.3.2
REMARK  6 active torsions:
REMARK  status: ('A' for Active; 'I' for Inactive)
REMARK    1  A    between atoms: C_1  and  C_2
REMARK    2  A    between atoms: C_6  and  C_13
REMARK    3  A    between atoms: C_6  and  C_14
REMARK    4  A    between atoms: C_7  and  C_8
REMARK    5  A    between atoms: C_9  and  C_10
REMARK    6  A    between atoms: C_10  and  C_12
REMARK                            x       y       z     vdW  Elec       q    Type
REMARK                         _______ _______ _______ _____ _____    ______ ____
ROOT
ATOM      1  C   UNL     1       0.640  -1.172  -2.478  1.00  0.00    +0.000 C 
ATOM      2  C   UNL     1      -0.460  -0.588  -1.627  1.00  0.00    +0.000 C 
ATOM      3  C   UNL     1      -1.748  -0.868  -1.904  1.00  0.00    +0.000 C 
ATOM      4  C   UNL     1      -2.916  -0.256  -1.193  1.00  0.00    +0.000 C 
ATOM      5  C   UNL     1      -2.527   0.941  -0.325  1.00  0.00    +0.000 C 
ATOM      6  C   UNL     1      -1.236   0.690   0.492  1.00  0.00    +0.000 C 
ATOM      7  C   UNL     1      -0.063   0.381  -0.511  1.00  0.00    +0.000 C 
ATOM      8  C   UNL     1      -0.922   1.968   1.300  1.00  0.00    +0.000 C 
ATOM      9  C   UNL     1      -1.483  -0.456   1.503  1.00  0.00    +0.000 C 
ENDROOT
BRANCH   7  10
ATOM     10  C   UNL     1       1.194  -0.080   0.207  1.00  0.00    +0.000 C 
ATOM     11  C   UNL     1       2.325   0.641   0.256  1.00  0.00    +0.000 C 
BRANCH  11  12
ATOM     12  C   UNL     1       3.575   0.213   0.942  1.00  0.00    +0.000 C 
ATOM     13  O   UNL     1       4.547   0.966   0.913  1.00  0.00    +0.000 OA
ATOM     14  C   UNL     1       3.623  -1.116   1.648  1.00  0.00    +0.000 C 
ENDBRANCH  11  12
ENDBRANCH   7  10
TORSDOF 2
