REMARK  Name = /srv/my_project/app/compsite/backup/Dave/CORINA_stuff/newPDBs/SANC00556.pdb
AUTHORGENERATED BY OPEN BABEL 2.3.2
REMARK  9 active torsions:
REMARK  status: ('A' for Active; 'I' for Inactive)
REMARK    1  A    between atoms: C_1  and  C_2
REMARK    2  A    between atoms: C_2  and  C_3
REMARK    3  A    between atoms: C_2  and  C_4
REMARK    4  A    between atoms: C_5  and  O_6
REMARK    5  A    between atoms: C_7  and  O_8
REMARK    6  A    between atoms: C_13  and  O_14
REMARK    7  A    between atoms: C_16  and  C_17
REMARK    8  A    between atoms: C_16  and  C_18
REMARK    9  A    between atoms: C_22  and  C_23
REMARK                            x       y       z     vdW  Elec       q    Type
REMARK                         _______ _______ _______ _____ _____    ______ ____
ROOT
ATOM      1  C   UNL     1       2.156   0.276   0.225  1.00  0.00    +0.000 A 
ATOM      2  C   UNL     1       3.134   1.299   0.206  1.00  0.00    +0.000 A 
ATOM      3  C   UNL     1       2.849   2.598  -0.197  1.00  0.00    +0.000 A 
ATOM      4  C   UNL     1       1.583   2.925  -0.619  1.00  0.00    +0.000 A 
ATOM      5  C   UNL     1       0.575   1.946  -0.587  1.00  0.00    +0.000 A 
ATOM      6  C   UNL     1      -0.726   2.371  -1.120  1.00  0.00    +0.000 C 
ATOM      7  O   UNL     1      -0.872   3.426  -1.737  1.00  0.00    +0.000 OA
ATOM      8  C   UNL     1      -1.921   1.555  -0.835  1.00  0.00    +0.000 C 
ATOM      9  C   UNL     1      -1.834   0.324  -0.293  1.00  0.00    +0.000 C 
ATOM     10  C   UNL     1      -3.083  -0.464   0.237  1.00  0.00    +0.000 C 
ATOM     11  C   UNL     1      -4.466   0.229   0.081  1.00  0.00    +0.000 C 
ATOM     12  C   UNL     1      -3.259  -1.821  -0.486  1.00  0.00    +0.000 C 
ATOM     13  C   UNL     1      -2.911  -0.703   1.764  1.00  0.00    +0.000 C 
ATOM     14  C   UNL     1      -1.478  -0.580   2.260  1.00  0.00    +0.000 C 
ATOM     15  C   UNL     1      -0.478  -1.141   1.258  1.00  0.00    +0.000 C 
ATOM     16  C   UNL     1      -0.424  -0.356  -0.092  1.00  0.00    +0.000 C 
ATOM     17  C   UNL     1      -0.198  -1.283  -1.319  1.00  0.00    +0.000 C 
ATOM     18  C   UNL     1       0.795   0.630  -0.114  1.00  0.00    +0.000 A 
ENDROOT
BRANCH   1  20
ATOM     19  C   UNL     1       3.203  -1.324   1.942  1.00  0.00    +0.000 C 
ATOM     20  C   UNL     1       2.635  -1.155   0.525  1.00  0.00    +0.000 C 
ATOM     21  C   UNL     1       3.633  -1.674  -0.524  1.00  0.00    +0.000 C 
ENDBRANCH   1  20
BRANCH   2  22
ATOM     22  O   UNL     1       4.433   1.044   0.568  1.00  0.00    +0.000 OA
ATOM     23  H   UNL     1       4.898   1.899   0.463  1.00  0.00    +0.000 HD
ENDBRANCH   2  22
BRANCH   3  24
ATOM     24  O   UNL     1       3.869   3.509  -0.190  1.00  0.00    +0.000 OA
ATOM     25  H   UNL     1       3.523   4.360  -0.512  1.00  0.00    +0.000 HD
ENDBRANCH   3  24
BRANCH   8  26
ATOM     26  O   UNL     1      -3.113   2.178  -1.143  1.00  0.00    +0.000 OA
ATOM     27  H   UNL     1      -2.857   3.029  -1.560  1.00  0.00    +0.000 HD
ENDBRANCH   8  26
TORSDOF 4
