REMARK  Name = SANCDB_00788_minRM1.pdb
AUTHORGENERATED BY OPEN BABEL 2.3.2
REMARK  9 active torsions:
REMARK  status: ('A' for Active; 'I' for Inactive)
REMARK    1  A    between atoms: C_1  and  N_2
REMARK    2  A    between atoms: C_9  and  O_10
REMARK    3  A    between atoms: C_9  and  C_29
REMARK    4  A    between atoms: C_12  and  C_28
REMARK    5  A    between atoms: C_13  and  C_23
REMARK    6  A    between atoms: C_13  and  O_24
REMARK    7  A    between atoms: O_24  and  C_25
REMARK    8  A    between atoms: C_25  and  C_27
REMARK    9  A    between atoms: C_29  and  C_31
REMARK                            x       y       z     vdW  Elec       q    Type
REMARK                         _______ _______ _______ _____ _____    ______ ____
ROOT
ATOM      1  C   UNL     1       6.041  -1.504   0.220  1.00  0.00    +0.000 C 
ATOM      2  N   UNL     1       4.624  -1.139   0.311  1.00  0.00    +0.000 NA
ATOM      3  C   UNL     1       4.485   0.238   0.814  1.00  0.00    +0.000 C 
ATOM      4  C   UNL     1       3.419   1.038   0.059  1.00  0.00    +0.000 C 
ATOM      5  C   UNL     1       2.069   0.338   0.057  1.00  0.00    +0.000 C 
ATOM      6  O   UNL     1       1.006   1.227  -0.325  1.00  0.00    +0.000 OA
ATOM      7  C   UNL     1       0.468   1.963   0.686  1.00  0.00    +0.000 C 
ATOM      8  O   UNL     1       0.960   2.047   1.805  1.00  0.00    +0.000 OA
ATOM      9  C   UNL     1      -0.867   2.615   0.251  1.00  0.00    +0.000 C 
ATOM     10  C   UNL     1      -1.940   1.501   0.099  1.00  0.00    +0.000 C 
ATOM     11  C   UNL     1      -1.991   0.764  -1.278  1.00  0.00    +0.000 C 
ATOM     12  C   UNL     1      -2.424  -0.744  -1.122  1.00  0.00    +0.000 C 
ATOM     13  C   UNL     1      -1.219  -1.521  -0.510  1.00  0.00    +0.000 C 
ATOM     14  O   UNL     1      -1.006  -1.637   0.693  1.00  0.00    +0.000 OA
ATOM     15  O   UNL     1      -0.402  -2.008  -1.481  1.00  0.00    +0.000 OA
ATOM     16  C   UNL     1       0.666  -2.877  -1.069  1.00  0.00    +0.000 C 
ATOM     17  C   UNL     1       1.846  -2.153  -0.485  1.00  0.00    +0.000 C 
ATOM     18  C   UNL     1       2.635  -2.670   0.478  1.00  0.00    +0.000 C 
ATOM     19  C   UNL     1       3.891  -2.130   1.114  1.00  0.00    +0.000 C 
ATOM     20  C   UNL     1       2.066  -0.774  -0.991  1.00  0.00    +0.000 C 
ATOM     21  O   UNL     1       2.122  -0.571  -2.203  1.00  0.00    +0.000 OA
ATOM     22  C   UNL     1      -2.833  -1.358  -2.477  1.00  0.00    +0.000 C 
ATOM     23  C   UNL     1      -2.945   1.540  -2.209  1.00  0.00    +0.000 C 
ENDROOT
BRANCH   9  24
ATOM     24  C   UNL     1      -1.247   3.675   1.331  1.00  0.00    +0.000 C 
ATOM     25 CL   UNL     1      -2.515   4.794   0.677  1.00  0.00    +0.000 Cl
ATOM     26  C   UNL     1      -1.764   3.123   2.660  1.00  0.00    +0.000 C 
ENDBRANCH   9  24
BRANCH   9  27
ATOM     27  O   UNL     1      -0.649   3.280  -1.004  1.00  0.00    +0.000 OA
ATOM     28  H   UNL     1      -1.201   4.085  -1.016  1.00  0.00    +0.000 HD
ENDBRANCH   9  27
BRANCH  12  29
ATOM     29  O   UNL     1      -3.577  -0.744  -0.241  1.00  0.00    +0.000 OA
BRANCH  29  30
ATOM     30  C   UNL     1      -4.041  -1.943   0.205  1.00  0.00    +0.000 C 
ATOM     31  O   UNL     1      -3.608  -3.039  -0.116  1.00  0.00    +0.000 OA
ATOM     32  C   UNL     1      -5.185  -1.727   1.147  1.00  0.00    +0.000 C 
ENDBRANCH  29  30
ENDBRANCH  12  29
TORSDOF 4
