REMARK  Name = SANCDB_01098_minRM1.pdb
AUTHORGENERATED BY OPEN BABEL 2.3.2
REMARK  16 active torsions:
REMARK  status: ('A' for Active; 'I' for Inactive)
REMARK    1  A    between atoms: C_1  and  C_2
REMARK    2  A    between atoms: C_2  and  C_3
REMARK    3  A    between atoms: C_3  and  C_4
REMARK    4  A    between atoms: C_4  and  C_5
REMARK    5  A    between atoms: C_5  and  C_6
REMARK    6  A    between atoms: C_7  and  C_8
REMARK    7  A    between atoms: C_8  and  C_9
REMARK    8  A    between atoms: C_10  and  C_11
REMARK    9  A    between atoms: C_11  and  C_12
REMARK   10  A    between atoms: C_12  and  C_13
REMARK   11  A    between atoms: C_13  and  C_14
REMARK   12  A    between atoms: C_14  and  C_15
REMARK   13  A    between atoms: C_15  and  C_16
REMARK   14  A    between atoms: C_16  and  C_17
REMARK   15  A    between atoms: C_17  and  C_18
REMARK   16  A    between atoms: C_18  and  O_20
REMARK                            x       y       z     vdW  Elec       q    Type
REMARK                         _______ _______ _______ _____ _____    ______ ____
ROOT
ATOM      1  C   UNL     1       0.709  -1.417  -1.173  1.00  0.00    +0.000 C 
ENDROOT
BRANCH   1   3
ATOM      2  C   UNL     1       0.128  -1.843   1.279  1.00  0.00    +0.000 C 
ATOM      3  C   UNL     1       0.862  -2.063   0.175  1.00  0.00    +0.000 C 
BRANCH   2   4
ATOM      4  C   UNL     1      -1.002  -0.869   1.457  1.00  0.00    +0.000 C 
BRANCH   4   6
ATOM      5  C   UNL     1      -3.396  -1.636   1.008  1.00  0.00    +0.000 C 
ATOM      6  C   UNL     1      -2.289  -1.580   1.766  1.00  0.00    +0.000 C 
BRANCH   5   7
ATOM      7  C   UNL     1      -3.591  -1.044  -0.359  1.00  0.00    +0.000 C 
BRANCH   7   8
ATOM      8  C   UNL     1      -4.359   0.282  -0.345  1.00  0.00    +0.000 C 
BRANCH   8   9
ATOM      9  C   UNL     1      -5.815   0.133   0.110  1.00  0.00    +0.000 C 
BRANCH   9  11
ATOM     10  C   UNL     1      -6.779   2.087  -1.224  1.00  0.00    +0.000 C 
ATOM     11  C   UNL     1      -6.575   1.462   0.148  1.00  0.00    +0.000 C 
ENDBRANCH   9  11
ENDBRANCH   8   9
ENDBRANCH   7   8
ENDBRANCH   5   7
ENDBRANCH   4   6
ENDBRANCH   2   4
ENDBRANCH   1   3
BRANCH   1  12
ATOM     12  C   UNL     1       1.899  -0.524  -1.540  1.00  0.00    +0.000 C 
BRANCH  12  13
ATOM     13  C   UNL     1       1.995   0.728  -0.662  1.00  0.00    +0.000 C 
BRANCH  13  14
ATOM     14  C   UNL     1       3.076   1.711  -1.123  1.00  0.00    +0.000 C 
BRANCH  14  15
ATOM     15  C   UNL     1       4.507   1.163  -1.150  1.00  0.00    +0.000 C 
BRANCH  15  16
ATOM     16  C   UNL     1       4.998   0.672   0.213  1.00  0.00    +0.000 C 
BRANCH  16  17
ATOM     17  C   UNL     1       6.465   0.248   0.152  1.00  0.00    +0.000 C 
BRANCH  17  18
ATOM     18  C   UNL     1       6.959  -0.242   1.486  1.00  0.00    +0.000 C 
ATOM     19  O   UNL     1       6.338  -0.305   2.533  1.00  0.00    +0.000 OA
BRANCH  18  20
ATOM     20  O   UNL     1       8.247  -0.635   1.429  1.00  0.00    +0.000 OA
ATOM     21  H   UNL     1       8.446  -0.925   2.344  1.00  0.00    +0.000 HD
ENDBRANCH  18  20
ENDBRANCH  17  18
ENDBRANCH  16  17
ENDBRANCH  15  16
ENDBRANCH  14  15
ENDBRANCH  13  14
ENDBRANCH  12  13
ENDBRANCH   1  12
TORSDOF 15
