REMARK  Name = SANCDB_00789_minRM1.pdb
AUTHORGENERATED BY OPEN BABEL 2.3.2
REMARK  4 active torsions:
REMARK  status: ('A' for Active; 'I' for Inactive)
REMARK    1  A    between atoms: C_18  and  C_23
REMARK    2  A    between atoms: C_18  and  O_24
REMARK    3  A    between atoms: C_19  and  C_22
REMARK    4  A    between atoms: C_20  and  C_21
REMARK                            x       y       z     vdW  Elec       q    Type
REMARK                         _______ _______ _______ _____ _____    ______ ____
ROOT
ATOM      1  C   UNL     1      -2.050   3.203  -1.327  1.00  0.00    +0.000 C 
ATOM      2  C   UNL     1      -1.363   2.082  -1.037  1.00  0.00    +0.000 C 
ATOM      3  C   UNL     1       0.117   2.243  -0.835  1.00  0.00    +0.000 C 
ATOM      4  O   UNL     1       0.710   3.308  -0.920  1.00  0.00    +0.000 OA
ATOM      5  O   UNL     1       0.683   1.057  -0.490  1.00  0.00    +0.000 OA
ATOM      6  C   UNL     1       2.005   1.144   0.041  1.00  0.00    +0.000 C 
ATOM      7  C   UNL     1       3.090   1.176  -1.013  1.00  0.00    +0.000 C 
ATOM      8  C   UNL     1       4.335   0.775  -0.230  1.00  0.00    +0.000 C 
ATOM      9  N   UNL     1       3.895   0.074   1.003  1.00  0.00    +0.000 NA
ATOM     10  C   UNL     1       2.402  -0.074   0.886  1.00  0.00    +0.000 C 
ATOM     11  C   UNL     1       2.223  -1.474   0.353  1.00  0.00    +0.000 C 
ATOM     12  C   UNL     1       3.365  -2.160   0.484  1.00  0.00    +0.000 C 
ATOM     13  C   UNL     1       4.428  -1.302   1.071  1.00  0.00    +0.000 C 
ATOM     14  C   UNL     1       0.945  -2.006  -0.198  1.00  0.00    +0.000 C 
ATOM     15  O   UNL     1      -0.143  -1.627   0.645  1.00  0.00    +0.000 OA
ATOM     16  C   UNL     1      -1.358  -1.977   0.131  1.00  0.00    +0.000 C 
ATOM     17  O   UNL     1      -1.516  -2.732  -0.822  1.00  0.00    +0.000 OA
ATOM     18  C   UNL     1      -2.506  -1.234   0.855  1.00  0.00    +0.000 C 
ATOM     19  C   UNL     1      -2.448   0.319   0.564  1.00  0.00    +0.000 C 
ATOM     20  C   UNL     1      -1.989   0.696  -0.905  1.00  0.00    +0.000 C 
ATOM     21  C   UNL     1      -3.125   0.496  -1.926  1.00  0.00    +0.000 C 
ATOM     22  C   UNL     1      -1.652   1.049   1.672  1.00  0.00    +0.000 C 
ATOM     23  C   UNL     1      -3.855  -1.843   0.446  1.00  0.00    +0.000 C 
ENDROOT
BRANCH  18  24
ATOM     24  O   UNL     1      -2.421  -1.459   2.273  1.00  0.00    +0.000 OA
ATOM     25  H   UNL     1      -2.402  -2.420   2.426  1.00  0.00    +0.000 HD
ENDBRANCH  18  24
TORSDOF 1
