REMARK  Name = SANC00691.pdb
AUTHORGENERATED BY OPEN BABEL 2.3.2
REMARK  4 active torsions:
REMARK  status: ('A' for Active; 'I' for Inactive)
REMARK    1  A    between atoms: C_5  and  C_6
REMARK    2  A    between atoms: C_13  and  C_14
REMARK    3  A    between atoms: C_17  and  O_18
REMARK    4  A    between atoms: C_20  and  C_21
REMARK                            x       y       z     vdW  Elec       q    Type
REMARK                         _______ _______ _______ _____ _____    ______ ____
ROOT
ATOM      1  C   UNL     1       0.331   0.523   0.081  1.00  0.00    +0.000 C 
ATOM      2  C   UNL     1       1.440   1.552  -0.308  1.00  0.00    +0.000 C 
ATOM      3  C   UNL     1       2.797   1.312   0.391  1.00  0.00    +0.000 C 
ATOM      4  C   UNL     1       3.166  -0.182   0.518  1.00  0.00    +0.000 C 
ATOM      5  C   UNL     1       4.516  -0.388   1.190  1.00  0.00    +0.000 C 
ATOM      6  C   UNL     1       3.044  -0.881  -0.815  1.00  0.00    +0.000 C 
ATOM      7  C   UNL     1       1.784  -1.307  -0.994  1.00  0.00    +0.000 C 
ATOM      8  C   UNL     1       0.924  -0.924   0.197  1.00  0.00    +0.000 C 
ATOM      9  C   UNL     1      -0.138  -1.966   0.549  1.00  0.00    +0.000 C 
ATOM     10  C   UNL     1      -1.357  -1.885  -0.365  1.00  0.00    +0.000 C 
ATOM     11  C   UNL     1      -1.960  -0.492  -0.323  1.00  0.00    +0.000 C 
ATOM     12  C   UNL     1      -3.220  -0.254   0.119  1.00  0.00    +0.000 C 
ATOM     13  C   UNL     1      -4.238  -1.272   0.552  1.00  0.00    +0.000 C 
ATOM     14  C   UNL     1      -3.723   1.149   0.224  1.00  0.00    +0.000 C 
ATOM     15  O   UNL     1      -4.853   1.429   0.622  1.00  0.00    +0.000 OA
ATOM     16  C   UNL     1      -2.813   2.255  -0.154  1.00  0.00    +0.000 C 
ATOM     17  C   UNL     1      -1.583   2.004  -0.603  1.00  0.00    +0.000 C 
ATOM     18  C   UNL     1      -0.985   0.619  -0.782  1.00  0.00    +0.000 C 
ATOM     19  C   UNL     1      -0.751   0.481  -2.303  1.00  0.00    +0.000 C 
ATOM     20  C   UNL     1       2.033  -0.893   1.271  1.00  0.00    +0.000 C 
ENDROOT
BRANCH  16  21
ATOM     21  O   UNL     1      -3.282   3.549  -0.039  1.00  0.00    +0.000 OA
ATOM     22  H   UNL     1      -4.198   3.450   0.298  1.00  0.00    +0.000 HD
ENDBRANCH  16  21
TORSDOF 1
