REMARK  Name = /srv/my_project/app/compsite/backup/Dave/CORINA_stuff/newPDBs/SANC00563.pdb
AUTHORGENERATED BY OPEN BABEL 2.3.2
REMARK  6 active torsions:
REMARK  status: ('A' for Active; 'I' for Inactive)
REMARK    1  A    between atoms: C_2  and  C_3
REMARK    2  A    between atoms: C_3  and  C_5
REMARK    3  A    between atoms: C_3  and  C_14
REMARK    4  A    between atoms: C_6  and  C_7
REMARK    5  A    between atoms: C_10  and  O_11
REMARK    6  A    between atoms: C_17  and  O_18
REMARK                            x       y       z     vdW  Elec       q    Type
REMARK                         _______ _______ _______ _____ _____    ______ ____
ROOT
ATOM      1  C   UNL     1      -0.805  -1.100   0.598  1.00  0.00    +0.000 C 
ENDROOT
BRANCH   1   2
ATOM      2  C   UNL     1      -1.690   0.082   0.209  1.00  0.00    +0.000 A 
ATOM      3  C   UNL     1      -1.548   0.667  -1.062  1.00  0.00    +0.000 A 
ATOM      4  C   UNL     1      -2.349   1.745  -1.450  1.00  0.00    +0.000 A 
ATOM      5  C   UNL     1      -3.301   2.241  -0.567  1.00  0.00    +0.000 A 
ATOM      6  C   UNL     1      -3.464   1.678   0.692  1.00  0.00    +0.000 A 
ATOM      7  C   UNL     1      -2.665   0.601   1.079  1.00  0.00    +0.000 A 
BRANCH   5   8
ATOM      8  O   UNL     1      -4.104   3.290  -0.904  1.00  0.00    +0.000 OA
ATOM      9  H   UNL     1      -3.893   3.560  -1.812  1.00  0.00    +0.000 HD
ENDBRANCH   5   8
ENDBRANCH   1   2
BRANCH   1  11
ATOM     10  C   UNL     1      -1.312  -3.476  -0.109  1.00  0.00    +0.000 C 
ATOM     11  C   UNL     1      -1.596  -2.392   0.628  1.00  0.00    +0.000 C 
ENDBRANCH   1  11
BRANCH   1  12
ATOM     12  C   UNL     1      -0.101  -0.880   1.923  1.00  0.00    +0.000 C 
ATOM     13  C   UNL     1       1.178  -0.514   2.113  1.00  0.00    +0.000 C 
BRANCH  13  14
ATOM     14  C   UNL     1       2.123  -0.212   1.038  1.00  0.00    +0.000 A 
ATOM     15  C   UNL     1       2.037   0.998   0.337  1.00  0.00    +0.000 A 
ATOM     16  C   UNL     1       2.936   1.281  -0.693  1.00  0.00    +0.000 A 
ATOM     17  C   UNL     1       3.919   0.351  -1.016  1.00  0.00    +0.000 A 
ATOM     18  C   UNL     1       4.016  -0.853  -0.328  1.00  0.00    +0.000 A 
ATOM     19  C   UNL     1       3.118  -1.136   0.703  1.00  0.00    +0.000 A 
BRANCH  17  20
ATOM     20  O   UNL     1       4.817   0.585  -2.014  1.00  0.00    +0.000 OA
ATOM     21  H   UNL     1       4.646   1.467  -2.384  1.00  0.00    +0.000 HD
ENDBRANCH  17  20
ENDBRANCH  13  14
ENDBRANCH   1  12
TORSDOF 6
