REMARK  Name = SANCDB_00929_minRM1.pdb
AUTHORGENERATED BY OPEN BABEL 2.3.2
REMARK  8 active torsions:
REMARK  status: ('A' for Active; 'I' for Inactive)
REMARK    1  A    between atoms: C_1  and  C_2
REMARK    2  A    between atoms: C_7  and  C_15
REMARK    3  A    between atoms: C_7  and  C_16
REMARK    4  A    between atoms: C_8  and  C_9
REMARK    5  A    between atoms: C_8  and  O_14
REMARK    6  A    between atoms: C_10  and  C_11
REMARK    7  A    between atoms: C_11  and  C_12
REMARK    8  A    between atoms: C_11  and  O_13
REMARK                            x       y       z     vdW  Elec       q    Type
REMARK                         _______ _______ _______ _____ _____    ______ ____
ROOT
ATOM      1  C   UNL     1       0.161   2.401  -1.181  1.00  0.00    +0.000 C 
ATOM      2  C   UNL     1      -0.937   1.476  -0.719  1.00  0.00    +0.000 C 
ATOM      3  C   UNL     1      -2.207   1.736  -1.081  1.00  0.00    +0.000 C 
ATOM      4  C   UNL     1      -3.342   0.947  -0.550  1.00  0.00    +0.000 C 
ATOM      5  O   UNL     1      -4.483   1.208  -0.924  1.00  0.00    +0.000 OA
ATOM      6  C   UNL     1      -3.058  -0.118   0.481  1.00  0.00    +0.000 C 
ATOM      7  C   UNL     1      -1.684  -0.790   0.255  1.00  0.00    +0.000 C 
ATOM      8  C   UNL     1      -0.567   0.329   0.218  1.00  0.00    +0.000 C 
ATOM      9  C   UNL     1      -1.745  -1.617  -1.057  1.00  0.00    +0.000 C 
ATOM     10  C   UNL     1      -1.463  -1.794   1.411  1.00  0.00    +0.000 C 
ENDROOT
BRANCH   8  11
ATOM     11  C   UNL     1       0.802  -0.247  -0.121  1.00  0.00    +0.000 C 
ATOM     12  C   UNL     1       1.942  -0.133   0.589  1.00  0.00    +0.000 C 
BRANCH  12  13
ATOM     13  C   UNL     1       3.252  -0.729   0.166  1.00  0.00    +0.000 C 
ATOM     14  C   UNL     1       4.314   0.339  -0.062  1.00  0.00    +0.000 C 
BRANCH  13  15
ATOM     15  O   UNL     1       3.675  -1.613   1.196  1.00  0.00    +0.000 OA
ATOM     16  H   UNL     1       3.907  -1.077   1.972  1.00  0.00    +0.000 HD
ENDBRANCH  13  15
ENDBRANCH  12  13
ENDBRANCH   8  11
BRANCH   8  17
ATOM     17  O   UNL     1      -0.503   0.954   1.505  1.00  0.00    +0.000 OA
ATOM     18  H   UNL     1      -0.147   0.300   2.127  1.00  0.00    +0.000 HD
ENDBRANCH   8  17
TORSDOF 4
