REMARK  Name = SANCDB_01124_minRM1.pdb
AUTHORGENERATED BY OPEN BABEL 2.3.2
REMARK  5 active torsions:
REMARK  status: ('A' for Active; 'I' for Inactive)
REMARK    1  A    between atoms: C_1  and  C_2
REMARK    2  A    between atoms: C_6  and  C_28
REMARK    3  A    between atoms: C_12  and  C_27
REMARK    4  A    between atoms: C_20  and  C_26
REMARK    5  A    between atoms: C_23  and  O_25
REMARK                            x       y       z     vdW  Elec       q    Type
REMARK                         _______ _______ _______ _____ _____    ______ ____
ROOT
ATOM      1  C   UNL     1       7.906  -0.653  -1.320  1.00  0.00    +0.000 C 
ATOM      2  C   UNL     1       6.905  -0.044  -0.340  1.00  0.00    +0.000 C 
ATOM      3  C   UNL     1       6.315  -1.098   0.610  1.00  0.00    +0.000 C 
ATOM      4  C   UNL     1       4.941  -1.557   0.138  1.00  0.00    +0.000 C 
ATOM      5  C   UNL     1       3.972  -0.375  -0.054  1.00  0.00    +0.000 C 
ATOM      6  C   UNL     1       2.961  -0.211   1.099  1.00  0.00    +0.000 C 
ATOM      7  C   UNL     1       1.784   0.499   0.419  1.00  0.00    +0.000 C 
ATOM      8  C   UNL     1       2.033   0.251  -1.085  1.00  0.00    +0.000 C 
ATOM      9  O   UNL     1       3.123  -0.659  -1.187  1.00  0.00    +0.000 OA
ATOM     10  C   UNL     1       0.731  -0.277  -1.688  1.00  0.00    +0.000 C 
ATOM     11  C   UNL     1      -0.299   0.291  -0.717  1.00  0.00    +0.000 C 
ATOM     12  C   UNL     1       0.330  -0.001   0.666  1.00  0.00    +0.000 C 
ATOM     13  C   UNL     1      -0.452   0.826   1.698  1.00  0.00    +0.000 C 
ATOM     14  C   UNL     1      -1.953   0.485   1.679  1.00  0.00    +0.000 C 
ATOM     15  C   UNL     1      -2.602   0.564   0.268  1.00  0.00    +0.000 C 
ATOM     16  C   UNL     1      -1.760  -0.153  -0.829  1.00  0.00    +0.000 C 
ATOM     17  C   UNL     1      -2.323   0.169  -2.221  1.00  0.00    +0.000 C 
ATOM     18  C   UNL     1      -3.817   0.115  -2.289  1.00  0.00    +0.000 C 
ATOM     19  C   UNL     1      -4.632   0.071  -1.220  1.00  0.00    +0.000 C 
ATOM     20  C   UNL     1      -4.115   0.108   0.227  1.00  0.00    +0.000 C 
ATOM     21  C   UNL     1      -4.958   1.134   1.042  1.00  0.00    +0.000 C 
ATOM     22  C   UNL     1      -6.470   0.984   0.877  1.00  0.00    +0.000 C 
ATOM     23  C   UNL     1      -6.876   1.042  -0.592  1.00  0.00    +0.000 C 
ATOM     24  C   UNL     1      -6.132  -0.013  -1.411  1.00  0.00    +0.000 C 
ATOM     25  C   UNL     1      -4.295  -1.303   0.836  1.00  0.00    +0.000 C 
ATOM     26  C   UNL     1       0.273  -1.499   1.055  1.00  0.00    +0.000 C 
ATOM     27  C   UNL     1       3.466   0.547   2.320  1.00  0.00    +0.000 C 
ATOM     28  O   UNL     1       4.664   0.863  -0.262  1.00  0.00    +0.000 OA
ATOM     29  C   UNL     1       5.805   0.708  -1.098  1.00  0.00    +0.000 C 
ENDROOT
BRANCH  23  30
ATOM     30  O   UNL     1      -8.280   0.815  -0.703  1.00  0.00    +0.000 OA
ATOM     31  H   UNL     1      -8.728   1.511  -0.193  1.00  0.00    +0.000 HD
ENDBRANCH  23  30
TORSDOF 1
