REMARK  Name = SANCDB_00858_minRM1.pdb
AUTHORGENERATED BY OPEN BABEL 2.3.2
REMARK  10 active torsions:
REMARK  status: ('A' for Active; 'I' for Inactive)
REMARK    1  A    between atoms: C_3  and  O_31
REMARK    2  A    between atoms: C_6  and  C_7
REMARK    3  A    between atoms: C_12  and  O_19
REMARK    4  A    between atoms: C_14  and  O_18
REMARK    5  A    between atoms: O_19  and  C_20
REMARK    6  A    between atoms: C_21  and  O_30
REMARK    7  A    between atoms: C_22  and  O_29
REMARK    8  A    between atoms: C_23  and  O_28
REMARK    9  A    between atoms: C_24  and  C_26
REMARK   10  A    between atoms: C_26  and  O_27
REMARK                            x       y       z     vdW  Elec       q    Type
REMARK                         _______ _______ _______ _____ _____    ______ ____
ROOT
ATOM      1  C   UNL     1       4.175  -0.244   0.388  1.00  0.00    +0.000 A 
ATOM      2  C   UNL     1       3.717  -0.060   1.637  1.00  0.00    +0.000 A 
ATOM      3  O   UNL     1       2.402   0.030   2.027  1.00  0.00    +0.000 OA
ATOM      4  C   UNL     1       1.439  -0.087   1.058  1.00  0.00    +0.000 A 
ATOM      5  C   UNL     1       0.109   0.007   1.470  1.00  0.00    +0.000 A 
ATOM      6  C   UNL     1      -0.932  -0.105   0.542  1.00  0.00    +0.000 A 
ATOM      7  C   UNL     1      -0.628  -0.304  -0.805  1.00  0.00    +0.000 A 
ATOM      8  C   UNL     1       0.703  -0.398  -1.215  1.00  0.00    +0.000 A 
ATOM      9  C   UNL     1       1.741  -0.291  -0.284  1.00  0.00    +0.000 A 
ATOM     10  C   UNL     1       3.154  -0.385  -0.686  1.00  0.00    +0.000 A 
ATOM     11  O   UNL     1       3.438  -0.567  -1.866  1.00  0.00    +0.000 OA
ENDROOT
BRANCH   1  17
ATOM     12  C   UNL     1       6.145  -1.415  -0.601  1.00  0.00    +0.000 A 
ATOM     13  C   UNL     1       7.517  -1.508  -0.848  1.00  0.00    +0.000 A 
ATOM     14  C   UNL     1       8.371  -0.518  -0.378  1.00  0.00    +0.000 A 
ATOM     15  C   UNL     1       7.876   0.568   0.335  1.00  0.00    +0.000 A 
ATOM     16  C   UNL     1       6.503   0.659   0.583  1.00  0.00    +0.000 A 
ATOM     17  C   UNL     1       5.621  -0.333   0.122  1.00  0.00    +0.000 A 
BRANCH  14  18
ATOM     18  O   UNL     1       9.701  -0.649  -0.642  1.00  0.00    +0.000 OA
ATOM     19  H   UNL     1      10.168   0.124  -0.285  1.00  0.00    +0.000 HD
ENDBRANCH  14  18
ENDBRANCH   1  17
BRANCH   8  20
ATOM     20  O   UNL     1       0.921  -0.596  -2.553  1.00  0.00    +0.000 OA
ATOM     21  H   UNL     1       1.893  -0.637  -2.702  1.00  0.00    +0.000 HD
ENDBRANCH   8  20
BRANCH   6  22
ATOM     22  O   UNL     1      -2.184   0.005   1.081  1.00  0.00    +0.000 OA
BRANCH  22  23
ATOM     23  C   UNL     1      -3.316  -0.188   0.209  1.00  0.00    +0.000 C 
ATOM     24  C   UNL     1      -4.541  -0.327   1.128  1.00  0.00    +0.000 C 
ATOM     25  C   UNL     1      -5.769  -0.684   0.287  1.00  0.00    +0.000 C 
ATOM     26  C   UNL     1      -5.719  -0.086  -1.126  1.00  0.00    +0.000 C 
ATOM     27  C   UNL     1      -4.744   1.098  -1.286  1.00  0.00    +0.000 C 
ATOM     28  O   UNL     1      -3.453   0.919  -0.681  1.00  0.00    +0.000 OA
BRANCH  26  29
ATOM     29  O   UNL     1      -5.263  -1.138  -2.007  1.00  0.00    +0.000 OA
ATOM     30  H   UNL     1      -5.442  -0.855  -2.921  1.00  0.00    +0.000 HD
ENDBRANCH  26  29
BRANCH  25  31
ATOM     31  O   UNL     1      -6.970  -0.292   0.968  1.00  0.00    +0.000 OA
ATOM     32  H   UNL     1      -6.885  -0.651   1.872  1.00  0.00    +0.000 HD
ENDBRANCH  25  31
BRANCH  24  33
ATOM     33  O   UNL     1      -4.361  -1.348   2.130  1.00  0.00    +0.000 OA
ATOM     34  H   UNL     1      -3.485  -1.171   2.525  1.00  0.00    +0.000 HD
ENDBRANCH  24  33
BRANCH  27  35
ATOM     35  C   UNL     1      -5.329   2.449  -0.841  1.00  0.00    +0.000 C 
BRANCH  35  36
ATOM     36  O   UNL     1      -5.664   2.464   0.538  1.00  0.00    +0.000 OA
ATOM     37  H   UNL     1      -6.020   3.346   0.742  1.00  0.00    +0.000 HD
ENDBRANCH  35  36
ENDBRANCH  27  35
ENDBRANCH  22  23
ENDBRANCH   6  22
TORSDOF 10
