REMARK  Name = SANCDB_00944_minRM1.pdb
AUTHORGENERATED BY OPEN BABEL 2.3.2
REMARK  26 active torsions:
REMARK  status: ('A' for Active; 'I' for Inactive)
REMARK    1  A    between atoms: C_2  and  C_10
REMARK    2  A    between atoms: C_4  and  O_9
REMARK    3  A    between atoms: C_5  and  O_8
REMARK    4  A    between atoms: C_6  and  O_7
REMARK    5  A    between atoms: C_10  and  O_12
REMARK    6  A    between atoms: O_12  and  C_13
REMARK    7  A    between atoms: C_13  and  C_14
REMARK    8  A    between atoms: C_15  and  O_56
REMARK    9  A    between atoms: C_16  and  O_44
REMARK   10  A    between atoms: C_17  and  O_32
REMARK   11  A    between atoms: C_18  and  O_20
REMARK   12  A    between atoms: O_20  and  C_21
REMARK   13  A    between atoms: C_21  and  C_23
REMARK   14  A    between atoms: C_25  and  O_31
REMARK   15  A    between atoms: C_26  and  O_30
REMARK   16  A    between atoms: C_27  and  O_29
REMARK   17  A    between atoms: O_32  and  C_33
REMARK   18  A    between atoms: C_33  and  C_35
REMARK   19  A    between atoms: C_37  and  O_43
REMARK   20  A    between atoms: C_38  and  O_42
REMARK   21  A    between atoms: C_39  and  O_41
REMARK   22  A    between atoms: O_44  and  C_45
REMARK   23  A    between atoms: C_45  and  C_47
REMARK   24  A    between atoms: C_49  and  O_55
REMARK   25  A    between atoms: C_50  and  O_54
REMARK   26  A    between atoms: C_51  and  O_53
REMARK                            x       y       z     vdW  Elec       q    Type
REMARK                         _______ _______ _______ _____ _____    ______ ____
ROOT
ATOM      1  C   UNL     1       1.885   1.646  -1.373  1.00  0.00    +0.000 C 
ATOM      2  C   UNL     1       0.752   1.906  -0.361  1.00  0.00    +0.000 C 
ATOM      3  C   UNL     1      -0.211   0.708  -0.300  1.00  0.00    +0.000 C 
ATOM      4  C   UNL     1       0.555  -0.608  -0.109  1.00  0.00    +0.000 C 
ATOM      5  C   UNL     1       1.651  -0.714  -1.187  1.00  0.00    +0.000 C 
ATOM      6  O   UNL     1       2.537   0.404  -1.076  1.00  0.00    +0.000 OA
ENDROOT
BRANCH   2   7
ATOM      7  O   UNL     1       0.005   3.079  -0.699  1.00  0.00    +0.000 OA
ATOM      8  H   UNL     1      -0.706   3.160  -0.036  1.00  0.00    +0.000 HD
ENDBRANCH   2   7
BRANCH   4   9
ATOM      9  O   UNL     1      -0.331  -1.744  -0.230  1.00  0.00    +0.000 OA
BRANCH   9  10
ATOM     10  C   UNL     1      -0.823  -2.261   0.919  1.00  0.00    +0.000 C 
ATOM     11  O   UNL     1      -0.661  -1.796   2.037  1.00  0.00    +0.000 OA
BRANCH  10  12
ATOM     12  C   UNL     1      -1.596  -3.503   0.659  1.00  0.00    +0.000 A 
ATOM     13  C   UNL     1      -2.325  -4.058   1.728  1.00  0.00    +0.000 A 
ATOM     14  C   UNL     1      -3.026  -5.244   1.538  1.00  0.00    +0.000 A 
ATOM     15  C   UNL     1      -2.995  -5.882   0.304  1.00  0.00    +0.000 A 
ATOM     16  C   UNL     1      -2.274  -5.337  -0.750  1.00  0.00    +0.000 A 
ATOM     17  C   UNL     1      -1.581  -4.144  -0.589  1.00  0.00    +0.000 A 
BRANCH  14  18
ATOM     18  O   UNL     1      -3.753  -5.827   2.537  1.00  0.00    +0.000 OA
ATOM     19  H   UNL     1      -3.701  -5.264   3.329  1.00  0.00    +0.000 HD
ENDBRANCH  14  18
BRANCH  15  20
ATOM     20  O   UNL     1      -3.670  -7.056   0.108  1.00  0.00    +0.000 OA
ATOM     21  H   UNL     1      -4.094  -7.240   0.972  1.00  0.00    +0.000 HD
ENDBRANCH  15  20
BRANCH  16  22
ATOM     22  O   UNL     1      -2.232  -5.981  -1.952  1.00  0.00    +0.000 OA
ATOM     23  H   UNL     1      -2.825  -6.752  -1.841  1.00  0.00    +0.000 HD
ENDBRANCH  16  22
ENDBRANCH  10  12
ENDBRANCH   9  10
ENDBRANCH   4   9
BRANCH   5  24
ATOM     24  O   UNL     1       2.415  -1.908  -0.949  1.00  0.00    +0.000 OA
BRANCH  24  25
ATOM     25  C   UNL     1       2.031  -2.983  -1.677  1.00  0.00    +0.000 C 
ATOM     26  O   UNL     1       1.197  -2.992  -2.566  1.00  0.00    +0.000 OA
BRANCH  25  27
ATOM     27  C   UNL     1       2.703  -4.208  -1.181  1.00  0.00    +0.000 A 
ATOM     28  C   UNL     1       3.900  -4.154  -0.452  1.00  0.00    +0.000 A 
ATOM     29  C   UNL     1       4.466  -5.341   0.001  1.00  0.00    +0.000 A 
ATOM     30  C   UNL     1       3.854  -6.568  -0.260  1.00  0.00    +0.000 A 
ATOM     31  C   UNL     1       2.668  -6.620  -0.985  1.00  0.00    +0.000 A 
ATOM     32  C   UNL     1       2.091  -5.443  -1.455  1.00  0.00    +0.000 A 
BRANCH  29  33
ATOM     33  O   UNL     1       5.633  -5.353   0.716  1.00  0.00    +0.000 OA
ATOM     34  H   UNL     1       5.960  -4.441   0.800  1.00  0.00    +0.000 HD
ENDBRANCH  29  33
BRANCH  30  35
ATOM     35  O   UNL     1       4.438  -7.713   0.210  1.00  0.00    +0.000 OA
ATOM     36  H   UNL     1       5.246  -7.416   0.669  1.00  0.00    +0.000 HD
ENDBRANCH  30  35
BRANCH  31  37
ATOM     37  O   UNL     1       2.075  -7.826  -1.229  1.00  0.00    +0.000 OA
ATOM     38  H   UNL     1       1.246  -7.687  -1.716  1.00  0.00    +0.000 HD
ENDBRANCH  31  37
ENDBRANCH  25  27
ENDBRANCH  24  25
ENDBRANCH   5  24
BRANCH   3  39
ATOM     39  O   UNL     1      -1.089   0.945   0.833  1.00  0.00    +0.000 OA
BRANCH  39  40
ATOM     40  C   UNL     1      -2.388   0.583   0.686  1.00  0.00    +0.000 C 
ATOM     41  O   UNL     1      -2.904   0.165  -0.335  1.00  0.00    +0.000 OA
BRANCH  40  42
ATOM     42  C   UNL     1      -3.121   0.784   1.960  1.00  0.00    +0.000 A 
ATOM     43  C   UNL     1      -4.516   0.922   1.904  1.00  0.00    +0.000 A 
ATOM     44  C   UNL     1      -5.228   1.099   3.082  1.00  0.00    +0.000 A 
ATOM     45  C   UNL     1      -4.572   1.128   4.305  1.00  0.00    +0.000 A 
ATOM     46  C   UNL     1      -3.191   0.976   4.365  1.00  0.00    +0.000 A 
ATOM     47  C   UNL     1      -2.454   0.804   3.198  1.00  0.00    +0.000 A 
BRANCH  44  48
ATOM     48  O   UNL     1      -6.584   1.242   3.030  1.00  0.00    +0.000 OA
ATOM     49  H   UNL     1      -6.861   1.351   3.962  1.00  0.00    +0.000 HD
ENDBRANCH  44  48
BRANCH  45  50
ATOM     50  O   UNL     1      -5.303   1.299   5.449  1.00  0.00    +0.000 OA
ATOM     51  H   UNL     1      -4.638   1.290   6.168  1.00  0.00    +0.000 HD
ENDBRANCH  45  50
BRANCH  46  52
ATOM     52  O   UNL     1      -2.602   0.993   5.599  1.00  0.00    +0.000 OA
ATOM     53  H   UNL     1      -1.648   0.830   5.489  1.00  0.00    +0.000 HD
ENDBRANCH  46  52
ENDBRANCH  40  42
ENDBRANCH  39  40
ENDBRANCH   3  39
BRANCH   1  54
ATOM     54  C   UNL     1       2.954   2.749  -1.341  1.00  0.00    +0.000 C 
BRANCH  54  55
ATOM     55  O   UNL     1       2.421   3.971  -1.861  1.00  0.00    +0.000 OA
BRANCH  55  56
ATOM     56  C   UNL     1       3.187   5.066  -1.643  1.00  0.00    +0.000 C 
ATOM     57  O   UNL     1       4.283   5.076  -1.108  1.00  0.00    +0.000 OA
BRANCH  56  59
ATOM     58  C   UNL     1       1.156   6.250  -2.583  1.00  0.00    +0.000 A 
ATOM     59  C   UNL     1       2.499   6.279  -2.160  1.00  0.00    +0.000 A 
ATOM     60  C   UNL     1       3.225   7.480  -2.204  1.00  0.00    +0.000 A 
ATOM     61  C   UNL     1       2.609   8.632  -2.676  1.00  0.00    +0.000 A 
ATOM     62  C   UNL     1       1.287   8.602  -3.098  1.00  0.00    +0.000 A 
ATOM     63  C   UNL     1       0.562   7.417  -3.052  1.00  0.00    +0.000 A 
BRANCH  61  64
ATOM     64  O   UNL     1       3.315   9.799  -2.722  1.00  0.00    +0.000 OA
ATOM     65  H   UNL     1       2.686  10.457  -3.083  1.00  0.00    +0.000 HD
ENDBRANCH  61  64
BRANCH  62  66
ATOM     66  O   UNL     1       0.709   9.754  -3.558  1.00  0.00    +0.000 OA
ATOM     67  H   UNL     1      -0.205   9.490  -3.792  1.00  0.00    +0.000 HD
ENDBRANCH  62  66
BRANCH  63  68
ATOM     68  O   UNL     1      -0.737   7.449  -3.476  1.00  0.00    +0.000 OA
ATOM     69  H   UNL     1      -1.111   6.553  -3.392  1.00  0.00    +0.000 HD
ENDBRANCH  63  68
ENDBRANCH  56  59
ENDBRANCH  55  56
ENDBRANCH  54  55
ENDBRANCH   1  54
TORSDOF 26
