REMARK  Name = /srv/my_project/app/compsite/backup/Dave/CORINA_stuff/newPDBs/SANC00200.pdb
AUTHORGENERATED BY OPEN BABEL 2.3.2
REMARK  10 active torsions:
REMARK  status: ('A' for Active; 'I' for Inactive)
REMARK    1  A    between atoms: C_4  and  C_5
REMARK    2  A    between atoms: C_10  and  C_11
REMARK    3  A    between atoms: C_11  and  O_12
REMARK    4  A    between atoms: O_12  and  C_13
REMARK    5  A    between atoms: C_13  and  C_14
REMARK    6  A    between atoms: C_17  and  O_19
REMARK    7  A    between atoms: O_19  and  C_20
REMARK    8  A    between atoms: C_20  and  C_22
REMARK    9  A    between atoms: C_22  and  C_24
REMARK   10  A    between atoms: C_24  and  O_25
REMARK                            x       y       z     vdW  Elec       q    Type
REMARK                         _______ _______ _______ _____ _____    ______ ____
ROOT
ATOM      1  C   UNL     1       0.412  -2.978   0.272  1.00  0.00    +0.000 C 
ATOM      2  C   UNL     1      -0.015  -3.282  -1.133  1.00  0.00    +0.000 C 
ATOM      3  C   UNL     1      -1.276  -3.272  -1.613  1.00  0.00    +0.000 C 
ATOM      4  C   UNL     1      -2.548  -2.971  -0.854  1.00  0.00    +0.000 C 
ATOM      5  C   UNL     1      -2.621  -1.637  -0.099  1.00  0.00    +0.000 C 
ATOM      6  C   UNL     1      -2.505  -0.402  -0.942  1.00  0.00    +0.000 C 
ATOM      7  C   UNL     1      -1.415   0.301  -1.316  1.00  0.00    +0.000 C 
ATOM      8  C   UNL     1       0.041  -0.050  -1.071  1.00  0.00    +0.000 C 
ATOM      9  C   UNL     1       0.518  -0.368   0.370  1.00  0.00    +0.000 C 
ATOM     10  C   UNL     1       1.269  -1.720   0.454  1.00  0.00    +0.000 C 
ATOM     11  C   UNL     1       1.907  -2.122   1.753  1.00  0.00    +0.000 C 
ATOM     12  C   UNL     1       2.271  -1.431   2.839  1.00  0.00    +0.000 C 
ATOM     13  C   UNL     1       2.044  -3.603   1.719  1.00  0.00    +0.000 C 
ATOM     14  O   UNL     1       2.740  -4.286   2.444  1.00  0.00    +0.000 OA
ATOM     15  O   UNL     1       1.258  -4.055   0.703  1.00  0.00    +0.000 OA
ENDROOT
BRANCH   3  16
ATOM     16  C   UNL     1      -1.422  -3.611  -3.061  1.00  0.00    +0.000 C 
ATOM     17  O   UNL     1      -2.500  -3.616  -3.643  1.00  0.00    +0.000 OA
ENDBRANCH   3  16
BRANCH   7  18
ATOM     18  C   UNL     1      -1.616   1.552  -2.156  1.00  0.00    +0.000 C 
BRANCH  18  19
ATOM     19  O   UNL     1      -1.197   2.692  -1.398  1.00  0.00    +0.000 OA
BRANCH  19  20
ATOM     20  C   UNL     1      -2.195   3.389  -0.791  1.00  0.00    +0.000 C 
ATOM     21  C   UNL     1      -1.633   4.529   0.004  1.00  0.00    +0.000 C 
ATOM     22  O   UNL     1      -3.391   3.140  -0.864  1.00  0.00    +0.000 OA
ENDBRANCH  19  20
ENDBRANCH  18  19
ENDBRANCH   7  18
BRANCH   9  23
ATOM     23  O   UNL     1       1.486   0.674   0.702  1.00  0.00    +0.000 OA
BRANCH  23  24
ATOM     24  C   UNL     1       0.992   1.791   1.300  1.00  0.00    +0.000 C 
ATOM     25  O   UNL     1      -0.172   1.967   1.619  1.00  0.00    +0.000 OA
BRANCH  24  26
ATOM     26  C   UNL     1       2.086   2.775   1.522  1.00  0.00    +0.000 C 
ATOM     27  C   UNL     1       1.760   3.954   2.081  1.00  0.00    +0.000 C 
BRANCH  26  28
ATOM     28  C   UNL     1       3.494   2.409   1.166  1.00  0.00    +0.000 C 
BRANCH  28  29
ATOM     29  O   UNL     1       3.646   2.334  -0.245  1.00  0.00    +0.000 OA
ATOM     30  H   UNL     1       3.102   1.585  -0.545  1.00  0.00    +0.000 HD
ENDBRANCH  28  29
ENDBRANCH  26  28
ENDBRANCH  24  26
ENDBRANCH  23  24
ENDBRANCH   9  23
TORSDOF 9
