REMARK  Name = SANCDB_00873_minRM1.pdb
AUTHORGENERATED BY OPEN BABEL 2.3.2
REMARK  4 active torsions:
REMARK  status: ('A' for Active; 'I' for Inactive)
REMARK    1  A    between atoms: C_1  and  C_2
REMARK    2  A    between atoms: C_10  and  C_24
REMARK    3  A    between atoms: C_21  and  C_22
REMARK    4  A    between atoms: C_21  and  C_23
REMARK                            x       y       z     vdW  Elec       q    Type
REMARK                         _______ _______ _______ _____ _____    ______ ____
ROOT
ATOM      1  C   UNL     1       5.588  -0.540   0.000  1.00  0.00    +0.000 C 
ATOM      2  C   UNL     1       4.588   0.547  -0.070  1.00  0.00    +0.000 C 
ATOM      3  C   UNL     1       3.414   0.726   0.558  1.00  0.00    +0.000 C 
ATOM      4  C   UNL     1       2.687  -0.131   1.483  1.00  0.00    +0.000 C 
ATOM      5  C   UNL     1       1.159  -0.071   1.413  1.00  0.00    +0.000 C 
ATOM      6  O   UNL     1       1.897   0.373   2.566  1.00  0.00    +0.000 OA
ATOM      7  C   UNL     1       0.412  -1.355   1.652  1.00  0.00    +0.000 C 
ATOM      8  C   UNL     1      -1.085  -1.147   1.776  1.00  0.00    +0.000 C 
ATOM      9  C   UNL     1      -1.723  -0.286   0.662  1.00  0.00    +0.000 C 
ATOM     10  C   UNL     1      -0.716   0.515  -0.237  1.00  0.00    +0.000 C 
ATOM     11  C   UNL     1       0.419   1.081   0.703  1.00  0.00    +0.000 C 
ATOM     12  C   UNL     1       1.340   2.063  -0.017  1.00  0.00    +0.000 C 
ATOM     13  C   UNL     1       2.828   1.961   0.094  1.00  0.00    +0.000 C 
ATOM     14  O   UNL     1       2.100   2.893   0.889  1.00  0.00    +0.000 OA
ATOM     15  O   UNL     1       3.658   2.510  -0.931  1.00  0.00    +0.000 OA
ATOM     16  C   UNL     1       4.760   1.695  -1.018  1.00  0.00    +0.000 C 
ATOM     17  O   UNL     1       5.708   1.852  -1.767  1.00  0.00    +0.000 OA
ATOM     18  C   UNL     1      -1.528   1.682  -0.893  1.00  0.00    +0.000 C 
ATOM     19  C   UNL     1      -3.020   1.398  -1.124  1.00  0.00    +0.000 C 
ATOM     20  C   UNL     1      -3.339  -0.079  -1.324  1.00  0.00    +0.000 C 
ATOM     21  C   UNL     1      -2.912  -0.958  -0.115  1.00  0.00    +0.000 C 
ATOM     22  C   UNL     1      -2.599  -2.380  -0.626  1.00  0.00    +0.000 C 
ATOM     23  C   UNL     1      -4.124  -1.082   0.843  1.00  0.00    +0.000 C 
ATOM     24  C   UNL     1      -0.063  -0.304  -1.380  1.00  0.00    +0.000 C 
ENDROOT
TORSDOF 0
