REMARK  Name = /srv/my_project/app/compsite/backup/Dave/CORINA_stuff/newPDBs/SANC00516.pdb
AUTHORGENERATED BY OPEN BABEL 2.3.2
REMARK  10 active torsions:
REMARK  status: ('A' for Active; 'I' for Inactive)
REMARK    1  A    between atoms: C_5  and  C_6
REMARK    2  A    between atoms: C_15  and  C_17
REMARK    3  A    between atoms: C_17  and  C_19
REMARK    4  A    between atoms: C_22  and  C_23
REMARK    5  A    between atoms: C_23  and  O_24
REMARK    6  A    between atoms: C_27  and  C_28
REMARK    7  A    between atoms: C_29  and  C_30
REMARK    8  A    between atoms: C_33  and  O_35
REMARK    9  A    between atoms: C_36  and  C_37
REMARK   10  A    between atoms: C_36  and  C_38
REMARK                            x       y       z     vdW  Elec       q    Type
REMARK                         _______ _______ _______ _____ _____    ______ ____
ROOT
ATOM      1  C   UNL     1       3.373  -0.879   0.296  1.00  0.00    +0.000 C 
ATOM      2  C   UNL     1       2.624  -2.225   0.268  1.00  0.00    +0.000 C 
ATOM      3  C   UNL     1       1.175  -2.068   0.741  1.00  0.00    +0.000 C 
ATOM      4  C   UNL     1       0.339  -1.050  -0.081  1.00  0.00    +0.000 C 
ATOM      5  C   UNL     1       0.087  -1.703  -1.474  1.00  0.00    +0.000 C 
ATOM      6  C   UNL     1       1.154   0.299  -0.212  1.00  0.00    +0.000 C 
ATOM      7  C   UNL     1       0.353   1.354  -1.009  1.00  0.00    +0.000 C 
ATOM      8  C   UNL     1      -1.033   1.628  -0.418  1.00  0.00    +0.000 C 
ATOM      9  C   UNL     1      -1.863   0.350  -0.232  1.00  0.00    +0.000 C 
ATOM     10  C   UNL     1      -3.280   0.590   0.327  1.00  0.00    +0.000 C 
ATOM     11  C   UNL     1      -4.230   1.632  -0.307  1.00  0.00    +0.000 C 
ATOM     12  C   UNL     1      -5.631   1.201   0.213  1.00  0.00    +0.000 C 
ATOM     13  C   UNL     1      -5.437  -0.148   0.929  1.00  0.00    +0.000 C 
ATOM     14  C   UNL     1      -4.131  -0.709   0.333  1.00  0.00    +0.000 C 
ATOM     15  C   UNL     1      -3.437  -1.748   1.228  1.00  0.00    +0.000 C 
ATOM     16  C   UNL     1      -1.970  -2.009   0.831  1.00  0.00    +0.000 C 
ATOM     17  C   UNL     1      -1.087  -0.725   0.641  1.00  0.00    +0.000 C 
ATOM     18  C   UNL     1      -0.864  -0.175   2.095  1.00  0.00    +0.000 C 
ATOM     19  C   UNL     1       2.690   0.193  -0.624  1.00  0.00    +0.000 C 
ATOM     20  C   UNL     1       2.864  -0.117  -2.129  1.00  0.00    +0.000 C 
ATOM     21  C   UNL     1       3.369   1.585  -0.353  1.00  0.00    +0.000 C 
ATOM     22  C   UNL     1       4.732   1.533   0.346  1.00  0.00    +0.000 C 
ATOM     23  C   UNL     1       5.609   0.376  -0.118  1.00  0.00    +0.000 C 
ATOM     24  C   UNL     1       4.942  -1.012   0.147  1.00  0.00    +0.000 C 
ATOM     25  C   UNL     1       5.373  -2.047  -0.913  1.00  0.00    +0.000 C 
ATOM     26  C   UNL     1       5.500  -1.524   1.507  1.00  0.00    +0.000 C 
ENDROOT
BRANCH  11  27
ATOM     27  C   UNL     1      -3.957   3.099  -0.017  1.00  0.00    +0.000 C 
ATOM     28  C   UNL     1      -3.937   4.005  -1.010  1.00  0.00    +0.000 C 
ATOM     29  C   UNL     1      -3.730   3.527   1.409  1.00  0.00    +0.000 C 
ENDBRANCH  11  27
BRANCH  23  30
ATOM     30  O   UNL     1       5.936   0.560  -1.493  1.00  0.00    +0.000 OA
ATOM     31  H   UNL     1       6.352   1.434  -1.585  1.00  0.00    +0.000 HD
ENDBRANCH  23  30
BRANCH  14  32
ATOM     32  C   UNL     1      -4.501  -1.325  -1.054  1.00  0.00    +0.000 C 
BRANCH  32  33
ATOM     33  O   UNL     1      -3.398  -1.834  -1.780  1.00  0.00    +0.000 OA
ATOM     34  H   UNL     1      -3.743  -2.208  -2.609  1.00  0.00    +0.000 HD
ENDBRANCH  32  33
ENDBRANCH  14  32
TORSDOF 4
