REMARK  Name = /srv/my_project/app/compsite/backup/Dave/CORINA_stuff/newPDBs/SANC00445.pdb
AUTHORGENERATED BY OPEN BABEL 2.3.2
REMARK  9 active torsions:
REMARK  status: ('A' for Active; 'I' for Inactive)
REMARK    1  A    between atoms: C_1  and  C_2
REMARK    2  A    between atoms: C_2  and  C_3
REMARK    3  A    between atoms: C_2  and  C_4
REMARK    4  A    between atoms: C_5  and  O_25
REMARK    5  A    between atoms: C_6  and  O_24
REMARK    6  A    between atoms: C_14  and  C_21
REMARK    7  A    between atoms: C_18  and  C_19
REMARK    8  A    between atoms: C_18  and  C_20
REMARK    9  A    between atoms: C_21  and  O_23
REMARK                            x       y       z     vdW  Elec       q    Type
REMARK                         _______ _______ _______ _____ _____    ______ ____
ROOT
ATOM      1  C   UNL     1       3.249  -0.303  -0.165  1.00  0.00    +0.000 A 
ATOM      2  C   UNL     1       2.793   0.986   0.091  1.00  0.00    +0.000 A 
ATOM      3  C   UNL     1       1.423   1.278   0.151  1.00  0.00    +0.000 A 
ATOM      4  C   UNL     1       0.440   0.288   0.001  1.00  0.00    +0.000 A 
ATOM      5  C   UNL     1       0.893  -1.036  -0.176  1.00  0.00    +0.000 A 
ATOM      6  C   UNL     1       2.275  -1.307  -0.289  1.00  0.00    +0.000 A 
ATOM      7  C   UNL     1      -0.050  -2.209  -0.285  1.00  0.00    +0.000 C 
ATOM      8  C   UNL     1      -1.454  -1.917   0.229  1.00  0.00    +0.000 C 
ATOM      9  C   UNL     1      -1.952  -0.591  -0.359  1.00  0.00    +0.000 C 
ATOM     10  C   UNL     1      -1.069   0.623   0.101  1.00  0.00    +0.000 C 
ATOM     11  C   UNL     1      -1.428   1.819  -0.848  1.00  0.00    +0.000 C 
ATOM     12  C   UNL     1      -2.849   1.796  -1.430  1.00  0.00    +0.000 C 
ATOM     13  C   UNL     1      -3.858   1.120  -0.512  1.00  0.00    +0.000 C 
ATOM     14  C   UNL     1      -3.502  -0.365  -0.242  1.00  0.00    +0.000 C 
ATOM     15  C   UNL     1      -4.090  -0.780   1.121  1.00  0.00    +0.000 C 
ATOM     16  C   UNL     1      -4.212  -1.232  -1.315  1.00  0.00    +0.000 C 
ENDROOT
BRANCH   1  18
ATOM     17  C   UNL     1       5.454  -0.513   1.056  1.00  0.00    +0.000 C 
ATOM     18  C   UNL     1       4.715  -0.679  -0.274  1.00  0.00    +0.000 C 
ATOM     19  C   UNL     1       5.429   0.068  -1.404  1.00  0.00    +0.000 C 
ENDBRANCH   1  18
BRANCH  10  20
ATOM     20  C   UNL     1      -1.364   1.037   1.562  1.00  0.00    +0.000 C 
ATOM     21  O   UNL     1      -1.991   2.015   1.945  1.00  0.00    +0.000 OA
BRANCH  20  22
ATOM     22  O   UNL     1      -0.876   0.186   2.492  1.00  0.00    +0.000 OA
ATOM     23  H   UNL     1      -1.118   0.615   3.338  1.00  0.00    +0.000 HD
ENDBRANCH  20  22
ENDBRANCH  10  20
BRANCH   3  24
ATOM     24  O   UNL     1       1.065   2.582   0.367  1.00  0.00    +0.000 OA
ATOM     25  H   UNL     1       1.732   3.120  -0.101  1.00  0.00    +0.000 HD
ENDBRANCH   3  24
BRANCH   2  26
ATOM     26  O   UNL     1       3.676   2.003   0.334  1.00  0.00    +0.000 OA
ATOM     27  H   UNL     1       3.340   2.448   1.135  1.00  0.00    +0.000 HD
ENDBRANCH   2  26
TORSDOF 5
