REMARK  Name = /srv/my_project/app/compsite/backup/Dave/CORINA_stuff/newPDBs/SANC00139.pdb
AUTHORGENERATED BY OPEN BABEL 2.3.2
REMARK  4 active torsions:
REMARK  status: ('A' for Active; 'I' for Inactive)
REMARK    1  A    between atoms: C_1  and  N_2
REMARK    2  A    between atoms: N_7  and  O_8
REMARK    3  A    between atoms: C_11  and  C_12
REMARK    4  A    between atoms: C_15  and  O_16
REMARK                            x       y       z     vdW  Elec       q    Type
REMARK                         _______ _______ _______ _____ _____    ______ ____
ROOT
ATOM      1  C   UNL     1      -4.536  -2.707   0.912  1.00  0.00    +0.000 C 
ATOM      2  N   UNL     1      -3.632  -1.798   0.239  1.00  0.00    +0.000 N 
ATOM      3  C   UNL     1      -4.018  -0.809  -0.647  1.00  0.00    +0.000 A 
ATOM      4  C   UNL     1      -2.894  -0.115  -1.041  1.00  0.00    +0.000 A 
ATOM      5  C   UNL     1      -2.727   1.142  -1.827  1.00  0.00    +0.000 C 
ATOM      6  C   UNL     1      -1.235   1.499  -2.058  1.00  0.00    +0.000 C 
ATOM      7  N   UNL     1      -0.334   1.153  -0.866  1.00  0.00    +0.000 N 
ATOM      8  C   UNL     1      -0.368  -0.344  -0.591  1.00  0.00    +0.000 C 
ATOM      9  C   UNL     1       0.402  -0.847   0.599  1.00  0.00    +0.000 A 
ATOM     10  C   UNL     1       1.721  -0.545   1.035  1.00  0.00    +0.000 A 
ATOM     11  C   UNL     1       1.955  -1.297   2.167  1.00  0.00    +0.000 A 
ATOM     12  N   UNL     1       0.848  -2.071   2.421  1.00  0.00    +0.000 N 
ATOM     13  H   UNL     1       0.747  -2.736   3.182  1.00  0.00    +0.000 HD
ATOM     14  C   UNL     1      -0.120  -1.797   1.488  1.00  0.00    +0.000 A 
ATOM     15  C   UNL     1      -1.458  -2.391   1.456  1.00  0.00    +0.000 C 
ATOM     16  O   UNL     1      -1.834  -3.281   2.204  1.00  0.00    +0.000 OA
ATOM     17  C   UNL     1      -2.275  -1.714   0.454  1.00  0.00    +0.000 A 
ATOM     18  C   UNL     1      -1.798  -0.763  -0.437  1.00  0.00    +0.000 A 
ATOM     19  H   UNL     1       0.635   1.398  -1.116  1.00  0.00    +0.000 HD
ENDROOT
BRANCH  10  20
ATOM     20  C   UNL     1       2.691   0.361   0.458  1.00  0.00    +0.000 A 
ATOM     21  C   UNL     1       3.147   1.467   1.186  1.00  0.00    +0.000 A 
ATOM     22  C   UNL     1       4.018   2.386   0.595  1.00  0.00    +0.000 A 
ATOM     23  C   UNL     1       4.425   2.191  -0.721  1.00  0.00    +0.000 A 
ATOM     24  C   UNL     1       3.991   1.089  -1.449  1.00  0.00    +0.000 A 
ATOM     25  C   UNL     1       3.127   0.167  -0.859  1.00  0.00    +0.000 A 
BRANCH  23  26
ATOM     26  O   UNL     1       5.261   3.066  -1.345  1.00  0.00    +0.000 OA
ATOM     27  H   UNL     1       5.629   3.686  -0.692  1.00  0.00    +0.000 HD
ENDBRANCH  23  26
ENDBRANCH  10  20
BRANCH   7  28
ATOM     28  O   UNL     1      -0.748   1.942   0.292  1.00  0.00    +0.000 OA
ATOM     29  H   UNL     1      -0.160   1.678   1.032  1.00  0.00    +0.000 HD
ENDBRANCH   7  28
TORSDOF 3
