REMARK  Name = SANCDB_00793_minRM1.pdb
AUTHORGENERATED BY OPEN BABEL 2.3.2
REMARK  7 active torsions:
REMARK  status: ('A' for Active; 'I' for Inactive)
REMARK    1  A    between atoms: C_1  and  N_2
REMARK    2  A    between atoms: C_9  and  O_10
REMARK    3  A    between atoms: C_9  and  C_26
REMARK    4  A    between atoms: C_12  and  C_25
REMARK    5  A    between atoms: C_13  and  C_23
REMARK    6  A    between atoms: C_13  and  O_24
REMARK    7  A    between atoms: C_26  and  C_28
REMARK                            x       y       z     vdW  Elec       q    Type
REMARK                         _______ _______ _______ _____ _____    ______ ____
ROOT
ATOM      1  C   UNL     1       5.595   1.122   0.695  1.00  0.00    +0.000 C 
ATOM      2  N   UNL     1       4.317   0.452   0.416  1.00  0.00    +0.000 NA
ATOM      3  C   UNL     1       3.693   1.065  -0.769  1.00  0.00    +0.000 C 
ATOM      4  C   UNL     1       2.212   0.722  -0.958  1.00  0.00    +0.000 C 
ATOM      5  C   UNL     1       1.424   0.868   0.348  1.00  0.00    +0.000 C 
ATOM      6  O   UNL     1       0.001   0.797   0.095  1.00  0.00    +0.000 OA
ATOM      7  C   UNL     1      -0.590   1.946  -0.310  1.00  0.00    +0.000 C 
ATOM      8  O   UNL     1       0.020   2.971  -0.610  1.00  0.00    +0.000 OA
ATOM      9  C   UNL     1      -2.135   1.894  -0.326  1.00  0.00    +0.000 C 
ATOM     10  C   UNL     1      -2.754   0.582  -0.885  1.00  0.00    +0.000 C 
ATOM     11  C   UNL     1      -2.596  -0.740  -0.087  1.00  0.00    +0.000 C 
ATOM     12  C   UNL     1      -2.147  -2.003  -0.925  1.00  0.00    +0.000 C 
ATOM     13  C   UNL     1      -1.147  -2.790  -0.043  1.00  0.00    +0.000 C 
ATOM     14  O   UNL     1      -1.424  -3.812   0.573  1.00  0.00    +0.000 OA
ATOM     15  O   UNL     1       0.042  -2.141  -0.007  1.00  0.00    +0.000 OA
ATOM     16  C   UNL     1       0.985  -2.583   0.972  1.00  0.00    +0.000 C 
ATOM     17  C   UNL     1       2.108  -1.593   0.908  1.00  0.00    +0.000 C 
ATOM     18  C   UNL     1       3.341  -1.878   0.451  1.00  0.00    +0.000 C 
ATOM     19  C   UNL     1       4.542  -0.990   0.275  1.00  0.00    +0.000 C 
ATOM     20  C   UNL     1       1.728  -0.228   1.382  1.00  0.00    +0.000 C 
ATOM     21  O   UNL     1       1.524  -0.063   2.587  1.00  0.00    +0.000 OA
ATOM     22  C   UNL     1      -1.469  -1.734  -2.273  1.00  0.00    +0.000 C 
ATOM     23  C   UNL     1      -3.882  -1.053   0.702  1.00  0.00    +0.000 C 
ENDROOT
BRANCH   9  24
ATOM     24  C   UNL     1      -2.663   2.473   1.011  1.00  0.00    +0.000 C 
ATOM     25 CL   UNL     1      -2.202   1.527   2.455  1.00  0.00    +0.000 Cl
ATOM     26  C   UNL     1      -4.170   2.727   1.026  1.00  0.00    +0.000 C 
ENDBRANCH   9  24
BRANCH   9  27
ATOM     27  O   UNL     1      -2.490   2.887  -1.352  1.00  0.00    +0.000 OA
ATOM     28  H   UNL     1      -1.822   3.603  -1.298  1.00  0.00    +0.000 HD
ENDBRANCH   9  27
BRANCH  12  29
ATOM     29  O   UNL     1      -3.278  -2.829  -1.235  1.00  0.00    +0.000 OA
ATOM     30  H   UNL     1      -3.369  -3.472  -0.502  1.00  0.00    +0.000 HD
ENDBRANCH  12  29
TORSDOF 3
