REMARK  Name = SANCDB_00984_minRM1.pdb
AUTHORGENERATED BY OPEN BABEL 2.3.2
REMARK  5 active torsions:
REMARK  status: ('A' for Active; 'I' for Inactive)
REMARK    1  A    between atoms: C_3  and  O_13
REMARK    2  A    between atoms: C_4  and  O_12
REMARK    3  A    between atoms: C_6  and  C_7
REMARK    4  A    between atoms: C_8  and  C_9
REMARK    5  A    between atoms: C_9  and  O_11
REMARK                            x       y       z     vdW  Elec       q    Type
REMARK                         _______ _______ _______ _____ _____    ______ ____
ROOT
ATOM      1  C   UNL     1       0.484   1.504   0.009  1.00  0.00    +0.000 A 
ATOM      2  C   UNL     1       1.870   1.676  -0.092  1.00  0.00    +0.000 A 
ATOM      3  C   UNL     1       2.683   0.557  -0.201  1.00  0.00    +0.000 A 
ATOM      4  C   UNL     1       2.124  -0.718  -0.204  1.00  0.00    +0.000 A 
ATOM      5  C   UNL     1       0.749  -0.897  -0.104  1.00  0.00    +0.000 A 
ATOM      6  C   UNL     1      -0.090   0.221  -0.010  1.00  0.00    +0.000 A 
ENDROOT
BRANCH   6   7
ATOM      7  C   UNL     1      -1.549   0.100   0.126  1.00  0.00    +0.000 C 
ATOM      8  C   UNL     1      -2.282  -0.845  -0.483  1.00  0.00    +0.000 C 
BRANCH   8   9
ATOM      9  C   UNL     1      -3.741  -0.953  -0.351  1.00  0.00    +0.000 C 
ATOM     10  O   UNL     1      -4.420  -1.804  -0.897  1.00  0.00    +0.000 OA
BRANCH   9  11
ATOM     11  O   UNL     1      -4.291  -0.016   0.437  1.00  0.00    +0.000 OA
ATOM     12  H   UNL     1      -5.246  -0.231   0.419  1.00  0.00    +0.000 HD
ENDBRANCH   9  11
ENDBRANCH   8   9
ENDBRANCH   6   7
BRANCH   4  13
ATOM     13  O   UNL     1       2.932  -1.815  -0.301  1.00  0.00    +0.000 OA
ATOM     14  H   UNL     1       3.837  -1.449  -0.357  1.00  0.00    +0.000 HD
ENDBRANCH   4  13
BRANCH   3  15
ATOM     15  O   UNL     1       4.042   0.656  -0.302  1.00  0.00    +0.000 OA
ATOM     16  H   UNL     1       4.279   1.599  -0.288  1.00  0.00    +0.000 HD
ENDBRANCH   3  15
TORSDOF 5
