REMARK  Name = /srv/my_project/app/compsite/backup/Dave/CORINA_stuff/newPDBs/SANC00342.pdb
AUTHORGENERATED BY OPEN BABEL 2.3.2
REMARK  7 active torsions:
REMARK  status: ('A' for Active; 'I' for Inactive)
REMARK    1  A    between atoms: C_1  and  C_2
REMARK    2  A    between atoms: C_2  and  C_3
REMARK    3  A    between atoms: C_8  and  C_9
REMARK    4  A    between atoms: C_16  and  C_17
REMARK    5  A    between atoms: C_16  and  C_18
REMARK    6  A    between atoms: C_22  and  O_23
REMARK    7  A    between atoms: C_27  and  O_28
REMARK                            x       y       z     vdW  Elec       q    Type
REMARK                         _______ _______ _______ _____ _____    ______ ____
ROOT
ATOM      1  C   UNL     1       0.398  -0.903   0.432  1.00  0.00    +0.000 A 
ATOM      2  C   UNL     1      -0.188  -1.708   1.331  1.00  0.00    +0.000 A 
ATOM      3  O   UNL     1      -1.504  -1.680   1.725  1.00  0.00    +0.000 OA
ATOM      4  C   UNL     1      -2.325  -0.749   1.142  1.00  0.00    +0.000 A 
ATOM      5  C   UNL     1      -3.659  -0.749   1.541  1.00  0.00    +0.000 A 
ATOM      6  C   UNL     1      -4.554   0.172   0.992  1.00  0.00    +0.000 A 
ATOM      7  O   UNL     1      -5.837   0.086   1.454  1.00  0.00    +0.000 OA
ATOM      8  C   UNL     1      -6.837   0.984   0.930  1.00  0.00    +0.000 C 
ATOM      9  C   UNL     1      -7.420   1.728   2.137  1.00  0.00    +0.000 C 
ATOM     10  C   UNL     1      -7.920   0.103   0.294  1.00  0.00    +0.000 C 
ATOM     11  C   UNL     1      -6.350   1.988  -0.086  1.00  0.00    +0.000 C 
ATOM     12  C   UNL     1      -5.084   2.051  -0.507  1.00  0.00    +0.000 C 
ATOM     13  C   UNL     1      -4.122   1.104   0.041  1.00  0.00    +0.000 A 
ATOM     14  C   UNL     1      -2.773   1.099  -0.356  1.00  0.00    +0.000 A 
ATOM     15  C   UNL     1      -1.877   0.170   0.197  1.00  0.00    +0.000 A 
ATOM     16  C   UNL     1      -0.457   0.138  -0.194  1.00  0.00    +0.000 A 
ATOM     17  O   UNL     1      -0.030   0.958  -1.003  1.00  0.00    +0.000 OA
ENDROOT
BRANCH   1  25
ATOM     18  C   UNL     1       7.381  -0.070  -2.076  1.00  0.00    +0.000 C 
ATOM     19  C   UNL     1       6.804  -0.296  -0.673  1.00  0.00    +0.000 C 
ATOM     20  C   UNL     1       7.920  -0.744   0.278  1.00  0.00    +0.000 C 
ATOM     21  C   UNL     1       6.206   0.996  -0.165  1.00  0.00    +0.000 C 
ATOM     22  C   UNL     1       4.914   1.138   0.142  1.00  0.00    +0.000 C 
ATOM     23  C   UNL     1       4.046  -0.016  -0.024  1.00  0.00    +0.000 A 
ATOM     24  C   UNL     1       2.678   0.073   0.269  1.00  0.00    +0.000 A 
ATOM     25  C   UNL     1       1.832  -1.037   0.112  1.00  0.00    +0.000 A 
ATOM     26  C   UNL     1       2.389  -2.238  -0.354  1.00  0.00    +0.000 A 
ATOM     27  C   UNL     1       3.750  -2.335  -0.644  1.00  0.00    +0.000 A 
ATOM     28  C   UNL     1       4.576  -1.224  -0.478  1.00  0.00    +0.000 A 
ATOM     29  O   UNL     1       5.894  -1.412  -0.782  1.00  0.00    +0.000 OA
BRANCH  26  30
ATOM     30  O   UNL     1       1.584  -3.332  -0.535  1.00  0.00    +0.000 OA
ATOM     31  H   UNL     1       2.104  -4.041  -0.948  1.00  0.00    +0.000 HD
ENDBRANCH  26  30
ENDBRANCH   1  25
BRANCH  14  32
ATOM     32  O   UNL     1      -2.365   2.023  -1.290  1.00  0.00    +0.000 OA
ATOM     33  H   UNL     1      -1.405   1.889  -1.461  1.00  0.00    +0.000 HD
ENDBRANCH  14  32
TORSDOF 3
