REMARK  Name = SANC00657.pdb
AUTHORGENERATED BY OPEN BABEL 2.3.0
REMARK  4 active torsions:
REMARK  status: ('A' for Active; 'I' for Inactive)
REMARK    1  A    between atoms: O_6  and  C_11
REMARK    2  A    between atoms: O_7  and  C_20
REMARK    3  A    between atoms: C_8  and  C_16
REMARK    4  A    between atoms: C_11  and  C_19
REMARK                            x       y       z     vdW  Elec       q    Type
REMARK                         _______ _______ _______ _____ _____    ______ ____
ROOT
ATOM      1  C   UNL     1       3.552  -1.306  -1.114  1.00  0.00    +0.000 C 
ATOM      2  O   UNL     1       3.277  -2.980   1.249  1.00  0.00    +0.000 OA
ATOM      3  C   UNL     1      -1.766   1.690   0.899  1.00  0.00    +0.000 C 
ATOM      4  C   UNL     1      -0.780  -1.649   0.203  1.00  0.00    +0.000 C 
ATOM      5  C   UNL     1      -2.412   1.327  -0.412  1.00  0.00    +0.000 C 
ATOM      6  C   UNL     1      -1.772   0.213  -1.250  1.00  0.00    +0.000 C 
ATOM      7  C   UNL     1       0.633   2.203   0.168  1.00  0.00    +0.000 C 
ATOM      8  O   UNL     1       1.217  -2.006   1.444  1.00  0.00    +0.000 OA
ATOM      9  C   UNL     1      -0.496   2.063   1.147  1.00  0.00    +0.000 C 
ATOM     10  C   UNL     1       2.438  -2.176   0.892  1.00  0.00    +0.000 C 
ATOM     11  C   UNL     1       2.567  -1.213  -0.211  1.00  0.00    +0.000 C 
ATOM     12  C   UNL     1      -1.744  -1.161  -0.610  1.00  0.00    +0.000 C 
ATOM     13  C   UNL     1       1.777   1.163   0.300  1.00  0.00    +0.000 C 
ATOM     14  C   UNL     1       0.450  -0.983   0.769  1.00  0.00    +0.000 C 
ATOM     15  C   UNL     1       1.410  -0.265  -0.190  1.00  0.00    +0.000 C 
ENDROOT
BRANCH   9  17
ATOM     16  O   UNL     1      -0.802   2.040   3.528  1.00  0.00    +0.000 OA
ATOM     17  C   UNL     1      -0.161   2.428   2.560  1.00  0.00    +0.000 C 
ENDBRANCH   9  17
BRANCH  13  18
ATOM     18  O   UNL     1       2.848   1.693  -0.498  1.00  0.00    +0.000 OA
ATOM     19  H   UNL     1       3.671   1.243  -0.233  1.00  0.00    +0.000 HD
ENDBRANCH  13  18
BRANCH  12  20
ATOM     20  C   UNL     1      -2.944  -2.020  -0.940  1.00  0.00    +0.000 C 
BRANCH  20  21
ATOM     21  O   UNL     1      -2.893  -2.369  -2.313  1.00  0.00    +0.000 OA
ATOM     22  H   UNL     1      -2.058  -2.850  -2.446  1.00  0.00    +0.000 HD
ENDBRANCH  20  21
ENDBRANCH  12  20
TORSDOF 4
