REMARK  Name = /srv/my_project/app/compsite/backup/Dave/CORINA_stuff/newPDBs/SANC00329.pdb
AUTHORGENERATED BY OPEN BABEL 2.3.2
REMARK  2 active torsions:
REMARK  status: ('A' for Active; 'I' for Inactive)
REMARK    1  A    between atoms: C_18  and  O_20
REMARK    2  A    between atoms: C_21  and  O_23
REMARK                            x       y       z     vdW  Elec       q    Type
REMARK                         _______ _______ _______ _____ _____    ______ ____
ROOT
ATOM      1  C   UNL     1      -0.378  -0.564   0.424  1.00  0.00    +0.000 C 
ATOM      2  C   UNL     1       1.064  -0.164   0.174  1.00  0.00    +0.000 A 
ATOM      3  C   UNL     1       2.139  -1.058   0.143  1.00  0.00    +0.000 A 
ATOM      4  C   UNL     1       3.396  -0.535  -0.084  1.00  0.00    +0.000 A 
ATOM      5  O   UNL     1       4.550  -1.254  -0.149  1.00  0.00    +0.000 OA
ATOM      6  C   UNL     1       5.507  -0.207  -0.406  1.00  0.00    +0.000 C 
ATOM      7  O   UNL     1       4.920   1.108  -0.473  1.00  0.00    +0.000 OA
ATOM      8  C   UNL     1       3.607   0.812  -0.270  1.00  0.00    +0.000 A 
ATOM      9  C   UNL     1       2.576   1.726  -0.240  1.00  0.00    +0.000 A 
ATOM     10  C   UNL     1       1.283   1.236  -0.021  1.00  0.00    +0.000 A 
ATOM     11  C   UNL     1       0.087   2.168   0.081  1.00  0.00    +0.000 C 
ATOM     12  N   UNL     1      -1.071   1.671  -0.667  1.00  0.00    +0.000 NA
ATOM     13  C   UNL     1      -2.347   2.275  -0.254  1.00  0.00    +0.000 C 
ATOM     14  C   UNL     1      -3.417   1.255  -0.656  1.00  0.00    +0.000 C 
ATOM     15  C   UNL     1      -2.703  -0.018  -0.340  1.00  0.00    +0.000 C 
ATOM     16  C   UNL     1      -3.185  -1.115   0.263  1.00  0.00    +0.000 C 
ATOM     17  C   UNL     1      -2.289  -2.233   0.745  1.00  0.00    +0.000 C 
ATOM     18  C   UNL     1      -0.778  -2.061   0.387  1.00  0.00    +0.000 C 
ATOM     19  C   UNL     1      -1.243   0.207  -0.595  1.00  0.00    +0.000 C 
ENDROOT
BRANCH  17  20
ATOM     20  O   UNL     1      -2.422  -2.265   2.166  1.00  0.00    +0.000 OA
ATOM     21  H   UNL     1      -3.341  -2.508   2.365  1.00  0.00    +0.000 HD
ENDBRANCH  17  20
BRANCH  18  22
ATOM     22  O   UNL     1      -0.504  -2.661  -0.889  1.00  0.00    +0.000 OA
ATOM     23  H   UNL     1      -1.137  -2.312  -1.540  1.00  0.00    +0.000 HD
ENDBRANCH  18  22
TORSDOF 2
