REMARK  Name = /srv/my_project/app/compsite/backup/Dave/CORINA_stuff/newPDBs/SANC00597.pdb
AUTHORGENERATED BY OPEN BABEL 2.3.2
REMARK  12 active torsions:
REMARK  status: ('A' for Active; 'I' for Inactive)
REMARK    1  A    between atoms: C_4  and  O_6
REMARK    2  A    between atoms: C_9  and  C_10
REMARK    3  A    between atoms: C_16  and  N_18
REMARK    4  A    between atoms: C_19  and  C_21
REMARK    5  A    between atoms: C_31  and  C_32
REMARK    6  A    between atoms: C_33  and  C_34
REMARK    7  A    between atoms: C_36  and  O_38
REMARK    8  A    between atoms: C_39  and  C_41
REMARK    9  A    between atoms: C_41  and  C_43
REMARK   10  A    between atoms: C_41  and  N_44
REMARK   11  A    between atoms: N_44  and  C_45
REMARK   12  A    between atoms: N_44  and  C_46
REMARK                            x       y       z     vdW  Elec       q    Type
REMARK                         _______ _______ _______ _____ _____    ______ ____
ROOT
ATOM      1  C   UNL     1      -0.510  -1.040  -0.116  1.00  0.00    +0.000 C 
ATOM      2  C   UNL     1       0.467  -1.416  -1.253  1.00  0.00    +0.000 C 
ATOM      3  C   UNL     1       1.942  -1.282  -0.835  1.00  0.00    +0.000 C 
ATOM      4  C   UNL     1       2.450  -2.466  -0.006  1.00  0.00    +0.000 C 
ATOM      5  C   UNL     1       3.921  -2.458   0.481  1.00  0.00    +0.000 C 
ATOM      6  C   UNL     1       4.977  -2.723  -0.598  1.00  0.00    +0.000 C 
ATOM      7  C   UNL     1       3.860  -3.676   1.431  1.00  0.00    +0.000 C 
ATOM      8  O   UNL     1       2.522  -3.741   1.961  1.00  0.00    +0.000 OA
ATOM      9  C   UNL     1       1.749  -2.674   1.348  1.00  0.00    +0.000 C 
ATOM     10  C   UNL     1       1.951  -1.492   2.274  1.00  0.00    +0.000 C 
ATOM     11  C   UNL     1       3.104  -0.797   2.244  1.00  0.00    +0.000 C 
ATOM     12  C   UNL     1       4.244  -1.174   1.319  1.00  0.00    +0.000 C 
ATOM     13  C   UNL     1       0.299  -3.170   1.219  1.00  0.00    +0.000 C 
ATOM     14  C   UNL     1      -0.789  -2.167   0.887  1.00  0.00    +0.000 C 
ATOM     15  C   UNL     1      -1.998  -2.305   1.483  1.00  0.00    +0.000 C 
ATOM     16  C   UNL     1      -3.192  -1.398   1.278  1.00  0.00    +0.000 C 
ATOM     17  C   UNL     1      -2.798  -0.092   0.567  1.00  0.00    +0.000 C 
ATOM     18  C   UNL     1      -2.110   0.836   1.617  1.00  0.00    +0.000 C 
ATOM     19  C   UNL     1      -1.865  -0.471  -0.654  1.00  0.00    +0.000 C 
ATOM     20  C   UNL     1      -2.499  -1.504  -1.647  1.00  0.00    +0.000 C 
ATOM     21  C   UNL     1      -1.773   0.871  -1.408  1.00  0.00    +0.000 C 
ATOM     22  C   UNL     1      -3.132   1.558  -1.169  1.00  0.00    +0.000 C 
ATOM     23  C   UNL     1      -3.935   0.688  -0.156  1.00  0.00    +0.000 C 
ENDROOT
BRANCH  12  24
ATOM     24  N   UNL     1       4.512  -0.018   0.481  1.00  0.00    +0.000 N 
ATOM     25  C   UNL     1       5.313   1.024   0.896  1.00  0.00    +0.000 C 
ATOM     26  O   UNL     1       5.850   1.071   1.997  1.00  0.00    +0.000 OA
ATOM     27  H   UNL     1       4.241  -0.073  -0.493  1.00  0.00    +0.000 HD
BRANCH  25  28
ATOM     28  C   UNL     1       5.536   2.117  -0.092  1.00  0.00    +0.000 A 
ATOM     29  C   UNL     1       6.718   2.863  -0.001  1.00  0.00    +0.000 A 
ATOM     30  C   UNL     1       6.967   3.897  -0.905  1.00  0.00    +0.000 A 
ATOM     31  C   UNL     1       6.033   4.197  -1.896  1.00  0.00    +0.000 A 
ATOM     32  C   UNL     1       4.846   3.469  -1.981  1.00  0.00    +0.000 A 
ATOM     33  C   UNL     1       4.593   2.433  -1.079  1.00  0.00    +0.000 A 
ENDBRANCH  25  28
ENDBRANCH  12  24
BRANCH   3  34
ATOM     34  O   UNL     1       2.759  -1.188  -2.007  1.00  0.00    +0.000 OA
ATOM     35  H   UNL     1       2.313  -0.609  -2.651  1.00  0.00    +0.000 HD
ENDBRANCH   3  34
BRANCH  22  36
ATOM     36  O   UNL     1      -3.846   1.683  -2.390  1.00  0.00    +0.000 OA
ATOM     37  H   UNL     1      -4.707   2.072  -2.130  1.00  0.00    +0.000 HD
ENDBRANCH  22  36
BRANCH  23  38
ATOM     38  C   UNL     1      -4.938   1.558   0.661  1.00  0.00    +0.000 C 
ATOM     39  C   UNL     1      -5.686   0.756   1.734  1.00  0.00    +0.000 C 
BRANCH  38  40
ATOM     40  N   UNL     1      -5.844   2.275  -0.283  1.00  0.00    +0.000 NA
ATOM     41  C   UNL     1      -6.966   1.471  -0.777  1.00  0.00    +0.000 C 
ATOM     42  C   UNL     1      -6.345   3.527   0.292  1.00  0.00    +0.000 C 
ENDBRANCH  38  40
ENDBRANCH  23  38
TORSDOF 6
