REMARK  Name = SANCDB_01012_minRM1.pdb
AUTHORGENERATED BY OPEN BABEL 2.3.2
REMARK  2 active torsions:
REMARK  status: ('A' for Active; 'I' for Inactive)
REMARK    1  A    between atoms: C_6  and  O_13
REMARK    2  A    between atoms: C_8  and  O_12
REMARK                            x       y       z     vdW  Elec       q    Type
REMARK                         _______ _______ _______ _____ _____    ______ ____
ROOT
ATOM      1  C   UNL     1      -2.738  -0.408   0.456  1.00  0.00    +0.000 A 
ATOM      2  C   UNL     1      -2.220  -1.636   0.372  1.00  0.00    +0.000 A 
ATOM      3  O   UNL     1      -0.898  -1.943   0.153  1.00  0.00    +0.000 OA
ATOM      4  C   UNL     1      -0.017  -0.897   0.004  1.00  0.00    +0.000 A 
ATOM      5  C   UNL     1       1.322  -1.225  -0.217  1.00  0.00    +0.000 A 
ATOM      6  C   UNL     1       2.255  -0.203  -0.374  1.00  0.00    +0.000 A 
ATOM      7  C   UNL     1       1.871   1.135  -0.313  1.00  0.00    +0.000 A 
ATOM      8  C   UNL     1       0.535   1.457  -0.092  1.00  0.00    +0.000 A 
ATOM      9  C   UNL     1      -0.412   0.441   0.068  1.00  0.00    +0.000 A 
ATOM     10  C   UNL     1      -1.832   0.741   0.303  1.00  0.00    +0.000 A 
ATOM     11  O   UNL     1      -2.240   1.895   0.368  1.00  0.00    +0.000 OA
ENDROOT
BRANCH   8  12
ATOM     12  O   UNL     1       0.216   2.787  -0.041  1.00  0.00    +0.000 OA
ATOM     13  H   UNL     1      -0.751   2.866   0.119  1.00  0.00    +0.000 HD
ENDBRANCH   8  12
BRANCH   6  14
ATOM     14  O   UNL     1       3.573  -0.474  -0.593  1.00  0.00    +0.000 OA
ATOM     15  H   UNL     1       3.704  -1.436  -0.613  1.00  0.00    +0.000 HD
ENDBRANCH   6  14
TORSDOF 2
