REMARK  Name = SANC00195.pdb
AUTHORGENERATED BY OPEN BABEL 2.3.0
REMARK  5 active torsions:
REMARK  status: ('A' for Active; 'I' for Inactive)
REMARK    1  A    between atoms: C_3  and  C_11
REMARK    2  A    between atoms: C_4  and  C_13
REMARK    3  A    between atoms: C_5  and  C_13
REMARK    4  A    between atoms: C_6  and  C_14
REMARK    5  A    between atoms: C_13  and  C_15
REMARK                            x       y       z     vdW  Elec       q    Type
REMARK                         _______ _______ _______ _____ _____    ______ ____
ROOT
ATOM      1  C   UNL     1      -2.159  -3.006   1.060  1.00  0.00    +0.000 C 
ATOM      2  C   UNL     1      -2.669   2.151   0.425  1.00  0.00    +0.000 C 
ATOM      3  O   UNL     1      -2.650   0.193  -2.546  1.00  0.00    +0.000 OA
ATOM      4  C   UNL     1      -2.732  -1.598  -0.943  1.00  0.00    +0.000 C 
ATOM      5  C   UNL     1      -0.167   2.309   0.559  1.00  0.00    +0.000 C 
ATOM      6  C   UNL     1       1.164   1.799   0.012  1.00  0.00    +0.000 C 
ATOM      7  C   UNL     1      -2.035  -1.803   0.189  1.00  0.00    +0.000 C 
ATOM      8  C   UNL     1      -2.277  -0.306  -1.500  1.00  0.00    +0.000 C 
ATOM      9  C   UNL     1      -1.351   1.790  -0.264  1.00  0.00    +0.000 C 
ATOM     10  C   UNL     1       1.288   0.278   0.206  1.00  0.00    +0.000 C 
ATOM     11  C   UNL     1      -1.085  -0.733   0.547  1.00  0.00    +0.000 C 
ATOM     12  C   UNL     1       0.069  -0.417  -0.378  1.00  0.00    +0.000 C 
ATOM     13  C   UNL     1      -1.266   0.306  -0.562  1.00  0.00    +0.000 C 
ENDROOT
BRANCH  10  16
ATOM     14  C   UNL     1       2.807  -1.763   0.053  1.00  0.00    +0.000 C 
ATOM     15  C   UNL     1       3.850   0.497   0.004  1.00  0.00    +0.000 C 
ATOM     16  C   UNL     1       2.604  -0.305  -0.389  1.00  0.00    +0.000 C 
ENDBRANCH  10  16
TORSDOF 1
