REMARK  Name = /srv/my_project/app/compsite/backup/Dave/CORINA_stuff/newPDBs/SANC00227.pdb
AUTHORGENERATED BY OPEN BABEL 2.3.2
REMARK  23 active torsions:
REMARK  status: ('A' for Active; 'I' for Inactive)
REMARK    1  A    between atoms: O_1  and  C_2
REMARK    2  A    between atoms: C_4  and  C_5
REMARK    3  A    between atoms: C_5  and  C_6
REMARK    4  A    between atoms: C_6  and  O_7
REMARK    5  A    between atoms: C_6  and  C_11
REMARK    6  A    between atoms: O_7  and  C_8
REMARK    7  A    between atoms: C_8  and  C_9
REMARK    8  A    between atoms: C_11  and  O_12
REMARK    9  A    between atoms: C_11  and  C_13
REMARK   10  A    between atoms: C_11  and  C_18
REMARK   11  A    between atoms: C_13  and  O_14
REMARK   12  A    between atoms: O_14  and  C_15
REMARK   13  A    between atoms: C_15  and  C_16
REMARK   14  A    between atoms: C_21  and  C_22
REMARK   15  A    between atoms: C_24  and  C_27
REMARK   16  A    between atoms: C_28  and  C_29
REMARK   17  A    between atoms: C_28  and  C_30
REMARK   18  A    between atoms: C_30  and  C_31
REMARK   19  A    between atoms: C_31  and  C_32
REMARK   20  A    between atoms: C_33  and  C_34
REMARK   21  A    between atoms: C_33  and  C_35
REMARK   22  A    between atoms: C_37  and  O_38
REMARK   23  A    between atoms: C_40  and  C_41
REMARK                            x       y       z     vdW  Elec       q    Type
REMARK                         _______ _______ _______ _____ _____    ______ ____
ROOT
ATOM      1  C   UNL     1      -1.505  -2.145   0.586  1.00  0.00    +0.000 C 
ENDROOT
BRANCH   1   2
ATOM      2  C   UNL     1       0.056  -2.035   0.533  1.00  0.00    +0.000 C 
ATOM      3  C   UNL     1       0.824  -3.193   1.199  1.00  0.00    +0.000 C 
ATOM      4  C   UNL     1       2.051  -3.364   0.308  1.00  0.00    +0.000 C 
ATOM      5  C   UNL     1       1.931  -2.229  -0.711  1.00  0.00    +0.000 C 
ATOM      6  C   UNL     1       2.511  -2.592  -2.069  1.00  0.00    +0.000 C 
ATOM      7  C   UNL     1       2.494  -0.900  -0.199  1.00  0.00    +0.000 C 
ATOM      8  C   UNL     1       1.847  -0.522   1.138  1.00  0.00    +0.000 C 
ATOM      9  O   UNL     1       0.442  -0.794   1.156  1.00  0.00    +0.000 OA
ATOM     10  O   UNL     1       0.515  -2.031  -0.828  1.00  0.00    +0.000 OA
BRANCH   8  11
ATOM     11  C   UNL     1       2.010   0.948   1.404  1.00  0.00    +0.000 C 
ATOM     12  C   UNL     1       2.917   1.565   2.188  1.00  0.00    +0.000 C 
ATOM     13  C   UNL     1       3.984   0.866   2.984  1.00  0.00    +0.000 C 
BRANCH  12  14
ATOM     14  C   UNL     1       2.905   3.080   2.312  1.00  0.00    +0.000 C 
BRANCH  14  15
ATOM     15  C   UNL     1       3.965   3.783   1.451  1.00  0.00    +0.000 C 
BRANCH  15  16
ATOM     16  C   UNL     1       3.671   3.694  -0.025  1.00  0.00    +0.000 C 
ATOM     17  C   UNL     1       4.322   2.976  -0.962  1.00  0.00    +0.000 C 
ATOM     18  C   UNL     1       5.498   2.076  -0.706  1.00  0.00    +0.000 C 
ATOM     19  C   UNL     1       3.874   3.013  -2.400  1.00  0.00    +0.000 C 
ENDBRANCH  15  16
ENDBRANCH  14  15
ENDBRANCH  12  14
ENDBRANCH   8  11
ENDBRANCH   1   2
BRANCH   1  20
ATOM     20  O   UNL     1      -1.882  -2.610   1.915  1.00  0.00    +0.000 OA
ATOM     21  H   UNL     1      -1.952  -1.822   2.495  1.00  0.00    +0.000 HD
ENDBRANCH   1  20
BRANCH   1  22
ATOM     22  C   UNL     1      -2.069  -3.185  -0.423  1.00  0.00    +0.000 C 
BRANCH  22  23
ATOM     23  O   UNL     1      -1.489  -4.488  -0.246  1.00  0.00    +0.000 OA
BRANCH  23  24
ATOM     24  C   UNL     1      -1.960  -5.436  -1.099  1.00  0.00    +0.000 C 
ATOM     25  C   UNL     1      -1.296  -6.749  -0.820  1.00  0.00    +0.000 C 
ATOM     26  O   UNL     1      -2.797  -5.255  -1.972  1.00  0.00    +0.000 OA
ENDBRANCH  23  24
ENDBRANCH  22  23
ENDBRANCH   1  22
BRANCH   1  27
ATOM     27  C   UNL     1      -2.201  -0.750   0.343  1.00  0.00    +0.000 C 
BRANCH  27  28
ATOM     28  O   UNL     1      -3.649  -0.928   0.396  1.00  0.00    +0.000 OA
BRANCH  28  29
ATOM     29  C   UNL     1      -4.229  -0.781   1.618  1.00  0.00    +0.000 C 
ATOM     30  C   UNL     1      -5.714  -0.930   1.498  1.00  0.00    +0.000 C 
ATOM     31  O   UNL     1      -3.635  -0.570   2.667  1.00  0.00    +0.000 OA
ENDBRANCH  28  29
ENDBRANCH  27  28
BRANCH  27  32
ATOM     32  C   UNL     1      -1.875  -0.081  -1.011  1.00  0.00    +0.000 C 
BRANCH  32  35
ATOM     33  C   UNL     1      -4.423   2.470  -2.255  1.00  0.00    +0.000 A 
ATOM     34  C   UNL     1      -3.717   1.279  -2.083  1.00  0.00    +0.000 A 
ATOM     35  C   UNL     1      -2.617   1.228  -1.212  1.00  0.00    +0.000 A 
ATOM     36  C   UNL     1      -2.255   2.392  -0.529  1.00  0.00    +0.000 A 
ATOM     37  C   UNL     1      -2.962   3.584  -0.701  1.00  0.00    +0.000 A 
ATOM     38  C   UNL     1      -4.058   3.633  -1.571  1.00  0.00    +0.000 A 
ATOM     39  C   UNL     1      -4.823   4.910  -1.762  1.00  0.00    +0.000 C 
BRANCH  36  40
ATOM     40  O   UNL     1      -1.190   2.347   0.323  1.00  0.00    +0.000 OA
ATOM     41  H   UNL     1      -1.127   3.193   0.795  1.00  0.00    +0.000 HD
ENDBRANCH  36  40
BRANCH  33  42
ATOM     42  O   UNL     1      -5.495   2.518  -3.101  1.00  0.00    +0.000 OA
ATOM     43  H   UNL     1      -5.602   1.646  -3.516  1.00  0.00    +0.000 HD
ENDBRANCH  33  42
ENDBRANCH  32  35
ENDBRANCH  27  32
ENDBRANCH   1  27
TORSDOF 16
