REMARK  Name = /srv/my_project/app/compsite/backup/Dave/CORINA_stuff/newPDBs/SANC00315.pdb
AUTHORGENERATED BY OPEN BABEL 2.3.2
REMARK  6 active torsions:
REMARK  status: ('A' for Active; 'I' for Inactive)
REMARK    1  A    between atoms: C_1  and  O_2
REMARK    2  A    between atoms: O_2  and  C_3
REMARK    3  A    between atoms: C_6  and  C_7
REMARK    4  A    between atoms: C_7  and  C_8
REMARK    5  A    between atoms: C_13  and  C_14
REMARK    6  A    between atoms: C_17  and  O_18
REMARK                            x       y       z     vdW  Elec       q    Type
REMARK                         _______ _______ _______ _____ _____    ______ ____
ROOT
ATOM      1  C   UNL     1      -0.741  -1.732  -1.017  1.00  0.00    +0.000 C 
ATOM      2  O   UNL     1      -0.326  -3.056  -1.189  1.00  0.00    +0.000 OA
ATOM      3  C   UNL     1      -1.070  -3.763  -0.276  1.00  0.00    +0.000 C 
ATOM      4  O   UNL     1      -0.985  -4.977  -0.134  1.00  0.00    +0.000 OA
ATOM      5  C   UNL     1      -1.998  -2.880   0.520  1.00  0.00    +0.000 C 
ATOM      6  C   UNL     1      -1.695  -1.570  -0.101  1.00  0.00    +0.000 C 
ENDROOT
BRANCH   6   7
ATOM      7  C   UNL     1      -2.336  -0.338   0.346  1.00  0.00    +0.000 A 
ATOM      8  C   UNL     1      -2.249   0.057   1.687  1.00  0.00    +0.000 A 
ATOM      9  C   UNL     1      -2.860   1.237   2.117  1.00  0.00    +0.000 A 
ATOM     10  C   UNL     1      -3.564   2.019   1.211  1.00  0.00    +0.000 A 
ATOM     11  C   UNL     1      -3.669   1.642  -0.123  1.00  0.00    +0.000 A 
ATOM     12  C   UNL     1      -3.056   0.462  -0.553  1.00  0.00    +0.000 A 
BRANCH  10  13
ATOM     13  O   UNL     1      -4.144   3.162   1.675  1.00  0.00    +0.000 OA
ATOM     14  H   UNL     1      -4.610   3.596   0.942  1.00  0.00    +0.000 HD
ENDBRANCH  10  13
ENDBRANCH   6   7
BRANCH   1  15
ATOM     15  C   UNL     1      -0.049  -0.711  -1.869  1.00  0.00    +0.000 C 
BRANCH  15  19
ATOM     16  C   UNL     1       3.728   0.519  -0.151  1.00  0.00    +0.000 A 
ATOM     17  C   UNL     1       3.664  -0.579  -1.012  1.00  0.00    +0.000 A 
ATOM     18  C   UNL     1       2.449  -0.977  -1.574  1.00  0.00    +0.000 A 
ATOM     19  C   UNL     1       1.274  -0.274  -1.286  1.00  0.00    +0.000 A 
ATOM     20  C   UNL     1       1.339   0.822  -0.414  1.00  0.00    +0.000 A 
ATOM     21  C   UNL     1       2.558   1.218   0.147  1.00  0.00    +0.000 A 
BRANCH  16  23
ATOM     22  C   UNL     1       5.093   1.906   1.213  1.00  0.00    +0.000 C 
ATOM     23  O   UNL     1       4.978   0.800   0.327  1.00  0.00    +0.000 OA
ENDBRANCH  16  23
ENDBRANCH  15  19
ENDBRANCH   1  15
TORSDOF 5
