REMARK  Name = /srv/my_project/app/compsite/backup/Dave/CORINA_stuff/newPDBs/SANC00598.pdb
AUTHORGENERATED BY OPEN BABEL 2.3.2
REMARK  14 active torsions:
REMARK  status: ('A' for Active; 'I' for Inactive)
REMARK    1  A    between atoms: C_7  and  C_8
REMARK    2  A    between atoms: C_10  and  O_12
REMARK    3  A    between atoms: C_13  and  C_15
REMARK    4  A    between atoms: C_15  and  C_17
REMARK    5  A    between atoms: C_15  and  N_18
REMARK    6  A    between atoms: N_18  and  C_19
REMARK    7  A    between atoms: N_18  and  C_20
REMARK    8  A    between atoms: C_21  and  C_22
REMARK    9  A    between atoms: C_29  and  O_31
REMARK   10  A    between atoms: C_32  and  N_34
REMARK   11  A    between atoms: N_34  and  C_35
REMARK   12  A    between atoms: N_34  and  C_36
REMARK   13  A    between atoms: C_37  and  C_38
REMARK   14  A    between atoms: C_37  and  C_39
REMARK                            x       y       z     vdW  Elec       q    Type
REMARK                         _______ _______ _______ _____ _____    ______ ____
ROOT
ATOM      1  C   UNL     1      -2.443  -0.660  -0.671  1.00  0.00    +0.000 C 
ATOM      2  C   UNL     1      -1.772  -1.757  -1.477  1.00  0.00    +0.000 C 
ATOM      3  C   UNL     1      -0.518  -2.178  -1.257  1.00  0.00    +0.000 C 
ATOM      4  C   UNL     1       0.376  -1.636  -0.165  1.00  0.00    +0.000 C 
ATOM      5  C   UNL     1       1.511  -0.732  -0.736  1.00  0.00    +0.000 C 
ATOM      6  C   UNL     1       0.860   0.504  -1.451  1.00  0.00    +0.000 C 
ATOM      7  C   UNL     1       2.447  -1.386  -1.772  1.00  0.00    +0.000 C 
ATOM      8  C   UNL     1       3.772  -0.607  -1.652  1.00  0.00    +0.000 C 
ATOM      9  C   UNL     1       3.660   0.337  -0.412  1.00  0.00    +0.000 C 
ATOM     10  C   UNL     1       2.529  -0.351   0.411  1.00  0.00    +0.000 C 
ATOM     11  C   UNL     1       3.127  -1.580   1.164  1.00  0.00    +0.000 C 
ATOM     12  C   UNL     1       1.770   0.522   1.422  1.00  0.00    +0.000 C 
ATOM     13  C   UNL     1       0.552  -0.213   2.005  1.00  0.00    +0.000 C 
ATOM     14  C   UNL     1      -0.364  -0.889   0.978  1.00  0.00    +0.000 C 
ATOM     15  C   UNL     1      -1.535  -1.623   1.613  1.00  0.00    +0.000 C 
ATOM     16  C   UNL     1      -1.826  -0.433   0.728  1.00  0.00    +0.000 C 
ATOM     17  C   UNL     1      -2.360   0.816   1.386  1.00  0.00    +0.000 C 
ATOM     18  C   UNL     1      -3.881   0.764   1.531  1.00  0.00    +0.000 C 
ATOM     19  C   UNL     1      -4.582   0.520   0.160  1.00  0.00    +0.000 C 
ATOM     20  C   UNL     1      -4.023  -0.761  -0.593  1.00  0.00    +0.000 C 
ATOM     21  C   UNL     1      -4.613  -0.763  -2.034  1.00  0.00    +0.000 C 
ATOM     22  C   UNL     1      -4.465  -2.077   0.083  1.00  0.00    +0.000 C 
ENDROOT
BRANCH  19  23
ATOM     23  N   UNL     1      -6.075   0.529   0.182  1.00  0.00    +0.000 NA
ATOM     24  C   UNL     1      -6.631   1.823  -0.215  1.00  0.00    +0.000 C 
ATOM     25  C   UNL     1      -6.691   0.088   1.433  1.00  0.00    +0.000 C 
ENDBRANCH  19  23
BRANCH   8  26
ATOM     26  O   UNL     1       4.017   0.153  -2.827  1.00  0.00    +0.000 OA
ATOM     27  H   UNL     1       4.846   0.639  -2.635  1.00  0.00    +0.000 HD
ENDBRANCH   8  26
BRANCH   9  28
ATOM     28  C   UNL     1       5.065   0.587   0.221  1.00  0.00    +0.000 C 
ATOM     29  C   UNL     1       5.006   1.433   1.499  1.00  0.00    +0.000 C 
BRANCH  28  30
ATOM     30  N   UNL     1       5.976   1.149  -0.819  1.00  0.00    +0.000 NA
ATOM     31  C   UNL     1       7.379   0.825  -0.545  1.00  0.00    +0.000 C 
ATOM     32  C   UNL     1       5.831   2.591  -1.038  1.00  0.00    +0.000 C 
ENDBRANCH  28  30
ENDBRANCH   9  28
BRANCH  18  33
ATOM     33  O   UNL     1      -4.298   2.005   2.118  1.00  0.00    +0.000 OA
ATOM     34  H   UNL     1      -4.228   2.690   1.432  1.00  0.00    +0.000 HD
ENDBRANCH  18  33
TORSDOF 5
