REMARK  Name = SANCDB_00759_minRM1.pdb
AUTHORGENERATED BY OPEN BABEL 2.3.2
REMARK  8 active torsions:
REMARK  status: ('A' for Active; 'I' for Inactive)
REMARK    1  A    between atoms: O_1  and  C_2
REMARK    2  A    between atoms: C_2  and  C_3
REMARK    3  A    between atoms: C_18  and  C_19
REMARK    4  A    between atoms: C_19  and  C_20
REMARK    5  A    between atoms: C_19  and  C_21
REMARK    6  A    between atoms: C_19  and  O_22
REMARK    7  A    between atoms: C_23  and  C_24
REMARK    8  A    between atoms: C_23  and  O_25
REMARK                            x       y       z     vdW  Elec       q    Type
REMARK                         _______ _______ _______ _____ _____    ______ ____
ROOT
ATOM      1  C   UNL     1      -1.217   1.644   1.309  1.00  0.00    +0.000 C 
ATOM      2  C   UNL     1      -1.876   2.859   1.983  1.00  0.00    +0.000 C 
ATOM      3  C   UNL     1      -0.456   2.205   0.088  1.00  0.00    +0.000 C 
ATOM      4  O   UNL     1      -0.954   2.414  -1.010  1.00  0.00    +0.000 OA
ATOM      5  O   UNL     1       0.850   2.411   0.422  1.00  0.00    +0.000 OA
ATOM      6  C   UNL     1       1.784   2.541  -0.657  1.00  0.00    +0.000 C 
ATOM      7  C   UNL     1       2.896   1.582  -0.388  1.00  0.00    +0.000 C 
ATOM      8  C   UNL     1       4.218   1.782  -0.436  1.00  0.00    +0.000 C 
ATOM      9  C   UNL     1       4.966   0.536  -0.085  1.00  0.00    +0.000 C 
ATOM     10  N   UNL     1       3.939  -0.477   0.213  1.00  0.00    +0.000 NA
ATOM     11  C   UNL     1       3.977  -1.658  -0.663  1.00  0.00    +0.000 C 
ATOM     12  C   UNL     1       2.514  -2.030  -0.890  1.00  0.00    +0.000 C 
ATOM     13  C   UNL     1       1.892  -0.656  -1.047  1.00  0.00    +0.000 C 
ATOM     14  O   UNL     1       0.462  -0.576  -1.034  1.00  0.00    +0.000 OA
ATOM     15  C   UNL     1      -0.268  -0.932   0.063  1.00  0.00    +0.000 C 
ATOM     16  O   UNL     1       0.185  -1.472   1.056  1.00  0.00    +0.000 OA
ATOM     17  C   UNL     1      -1.719  -0.529  -0.187  1.00  0.00    +0.000 C 
ATOM     18  C   UNL     1      -2.254   0.518   0.868  1.00  0.00    +0.000 C 
ATOM     19  C   UNL     1      -2.815  -0.174   2.126  1.00  0.00    +0.000 C 
ATOM     20  C   UNL     1       2.612   0.171   0.024  1.00  0.00    +0.000 C 
ENDROOT
BRANCH  17  21
ATOM     21  C   UNL     1      -2.572  -1.801  -0.510  1.00  0.00    +0.000 C 
ATOM     22  C   UNL     1      -1.922  -2.642  -1.628  1.00  0.00    +0.000 C 
ATOM     23  C   UNL     1      -3.996  -1.445  -0.967  1.00  0.00    +0.000 C 
BRANCH  21  24
ATOM     24  O   UNL     1      -2.679  -2.646   0.634  1.00  0.00    +0.000 OA
ATOM     25  H   UNL     1      -3.236  -3.411   0.409  1.00  0.00    +0.000 HD
ENDBRANCH  21  24
ENDBRANCH  17  21
BRANCH   1  26
ATOM     26  O   UNL     1      -0.305   1.093   2.266  1.00  0.00    +0.000 OA
ATOM     27  H   UNL     1       0.451   1.704   2.347  1.00  0.00    +0.000 HD
ENDBRANCH   1  26
BRANCH  18  28
ATOM     28  O   UNL     1      -3.387   1.190   0.253  1.00  0.00    +0.000 OA
ATOM     29  H   UNL     1      -3.062   1.686  -0.524  1.00  0.00    +0.000 HD
ENDBRANCH  18  28
TORSDOF 4
