REMARK  Name = /srv/my_project/app/compsite/backup/Dave/CORINA_stuff/newPDBs/SANC00433.pdb
AUTHORGENERATED BY OPEN BABEL 2.3.2
REMARK  4 active torsions:
REMARK  status: ('A' for Active; 'I' for Inactive)
REMARK    1  A    between atoms: C_1  and  C_2
REMARK    2  A    between atoms: C_12  and  C_23
REMARK    3  A    between atoms: C_15  and  O_21
REMARK    4  A    between atoms: O_21  and  C_22
REMARK                            x       y       z     vdW  Elec       q    Type
REMARK                         _______ _______ _______ _____ _____    ______ ____
ROOT
ATOM      1  C   UNL     1      -4.377  -0.225  -1.372  1.00  0.00    +0.000 C 
ATOM      2  C   UNL     1      -3.371   0.273  -0.341  1.00  0.00    +0.000 C 
ATOM      3  C   UNL     1      -3.897   0.062   1.094  1.00  0.00    +0.000 C 
ATOM      4  C   UNL     1      -2.976   0.666   2.159  1.00  0.00    +0.000 C 
ATOM      5  C   UNL     1      -1.478   0.541   1.835  1.00  0.00    +0.000 C 
ATOM      6  C   UNL     1      -1.149   0.707   0.325  1.00  0.00    +0.000 C 
ATOM      7  C   UNL     1      -1.970  -0.339  -0.451  1.00  0.00    +0.000 C 
ATOM      8  C   UNL     1      -1.452  -0.562  -1.870  1.00  0.00    +0.000 C 
ATOM      9  C   UNL     1      -0.012  -1.081  -1.885  1.00  0.00    +0.000 C 
ATOM     10  C   UNL     1       0.845  -0.637  -0.690  1.00  0.00    +0.000 C 
ATOM     11  C   UNL     1       0.408   0.737  -0.054  1.00  0.00    +0.000 C 
ATOM     12  C   UNL     1       1.323   1.058   1.180  1.00  0.00    +0.000 C 
ATOM     13  C   UNL     1       2.817   0.750   0.958  1.00  0.00    +0.000 C 
ATOM     14  C   UNL     1       3.064  -0.614   0.276  1.00  0.00    +0.000 C 
ATOM     15  C   UNL     1       2.346  -0.656  -1.077  1.00  0.00    +0.000 C 
ATOM     16  C   UNL     1       2.308  -1.710   0.995  1.00  0.00    +0.000 C 
ATOM     17  C   UNL     1       2.713  -2.587   1.920  1.00  0.00    +0.000 C 
ATOM     18  C   UNL     1       0.932  -1.710   0.402  1.00  0.00    +0.000 C 
ATOM     19  O   UNL     1       0.027  -2.435   0.779  1.00  0.00    +0.000 OA
ATOM     20  C   UNL     1       0.672   1.895  -1.074  1.00  0.00    +0.000 C 
ATOM     21  O   UNL     1      -1.763   1.958  -0.087  1.00  0.00    +0.000 OA
ATOM     22  C   UNL     1      -3.048   1.740  -0.514  1.00  0.00    +0.000 C 
ATOM     23  O   UNL     1      -3.793   2.614  -0.922  1.00  0.00    +0.000 OA
ENDROOT
BRANCH  14  24
ATOM     24  O   UNL     1       4.439  -0.966   0.201  1.00  0.00    +0.000 OA
ATOM     25  C   UNL     1       5.269  -0.110  -0.569  1.00  0.00    +0.000 C 
ENDBRANCH  14  24
TORSDOF 1
