REMARK  Name = /srv/my_project/app/compsite/backup/Dave/CORINA_stuff/newPDBs/SANC00154.pdb
AUTHORGENERATED BY OPEN BABEL 2.3.2
REMARK  15 active torsions:
REMARK  status: ('A' for Active; 'I' for Inactive)
REMARK    1  A    between atoms: C_2  and  C_3
REMARK    2  A    between atoms: C_3  and  C_5
REMARK    3  A    between atoms: C_3  and  C_6
REMARK    4  A    between atoms: C_6  and  C_7
REMARK    5  A    between atoms: C_7  and  C_8
REMARK    6  A    between atoms: C_8  and  C_9
REMARK    7  A    between atoms: C_9  and  C_10
REMARK    8  A    between atoms: C_9  and  C_11
REMARK    9  A    between atoms: C_18  and  O_20
REMARK   10  A    between atoms: C_24  and  O_26
REMARK   11  A    between atoms: C_29  and  C_30
REMARK   12  A    between atoms: C_30  and  O_31
REMARK   13  A    between atoms: O_31  and  C_32
REMARK   14  A    between atoms: C_32  and  C_33
REMARK   15  A    between atoms: C_38  and  C_39
REMARK                            x       y       z     vdW  Elec       q    Type
REMARK                         _______ _______ _______ _____ _____    ______ ____
ROOT
ATOM      1  C   UNL     1       1.778  -0.990  -0.544  1.00  0.00    +0.000 C 
ATOM      2  C   UNL     1       1.468  -2.218  -1.444  1.00  0.00    +0.000 C 
ATOM      3  C   UNL     1      -0.047  -2.208  -1.696  1.00  0.00    +0.000 C 
ATOM      4  C   UNL     1      -0.505  -0.855  -1.171  1.00  0.00    +0.000 C 
ATOM      5  C   UNL     1      -2.008  -0.611  -0.914  1.00  0.00    +0.000 C 
ATOM      6  C   UNL     1      -2.862  -0.924  -2.158  1.00  0.00    +0.000 C 
ATOM      7  C   UNL     1      -4.168  -0.204  -2.212  1.00  0.00    +0.000 C 
ATOM      8  C   UNL     1      -4.561   0.768  -1.372  1.00  0.00    +0.000 C 
ATOM      9  C   UNL     1      -5.853   1.511  -1.610  1.00  0.00    +0.000 C 
ATOM     10  C   UNL     1      -5.572   2.972  -1.999  1.00  0.00    +0.000 C 
ATOM     11  C   UNL     1      -4.209   3.478  -1.503  1.00  0.00    +0.000 C 
ATOM     12  C   UNL     1      -3.834   2.847  -0.157  1.00  0.00    +0.000 C 
ATOM     13  C   UNL     1      -3.697   1.282  -0.210  1.00  0.00    +0.000 C 
ATOM     14  C   UNL     1      -2.188   0.875  -0.452  1.00  0.00    +0.000 C 
ATOM     15  C   UNL     1      -1.256   1.198   0.747  1.00  0.00    +0.000 C 
ATOM     16  C   UNL     1       0.218   0.842   0.491  1.00  0.00    +0.000 C 
ATOM     17  C   UNL     1       0.394  -0.628   0.078  1.00  0.00    +0.000 C 
ATOM     18  C   UNL     1       0.035  -1.548   1.265  1.00  0.00    +0.000 C 
ENDROOT
BRANCH   1  19
ATOM     19  C   UNL     1       3.077  -1.157   0.299  1.00  0.00    +0.000 C 
ATOM     20  C   UNL     1       3.108  -2.329   1.286  1.00  0.00    +0.000 C 
BRANCH  19  21
ATOM     21  C   UNL     1       3.470   0.160   1.004  1.00  0.00    +0.000 C 
BRANCH  21  22
ATOM     22  C   UNL     1       4.878   0.205   1.618  1.00  0.00    +0.000 C 
BRANCH  22  23
ATOM     23  C   UNL     1       6.004   0.082   0.586  1.00  0.00    +0.000 C 
BRANCH  23  24
ATOM     24  C   UNL     1       7.414   0.155   1.204  1.00  0.00    +0.000 C 
ATOM     25  C   UNL     1       7.709   1.517   1.834  1.00  0.00    +0.000 C 
ATOM     26  C   UNL     1       8.465  -0.155   0.135  1.00  0.00    +0.000 C 
ENDBRANCH  23  24
ENDBRANCH  22  23
ENDBRANCH  21  22
ENDBRANCH  19  21
ENDBRANCH   1  19
BRANCH   6  27
ATOM     27  O   UNL     1      -3.188  -2.310  -2.194  1.00  0.00    +0.000 OA
ATOM     28  H   UNL     1      -2.402  -2.791  -2.495  1.00  0.00    +0.000 HD
ENDBRANCH   6  27
BRANCH  10  29
ATOM     29  O   UNL     1      -6.605   3.810  -1.477  1.00  0.00    +0.000 OA
ATOM     30  H   UNL     1      -6.584   3.752  -0.506  1.00  0.00    +0.000 HD
ENDBRANCH  10  29
BRANCH  13  31
ATOM     31  C   UNL     1      -4.262   0.739   1.143  1.00  0.00    +0.000 C 
BRANCH  31  32
ATOM     32  O   UNL     1      -4.120  -0.681   1.247  1.00  0.00    +0.000 OA
BRANCH  32  33
ATOM     33  C   UNL     1      -4.621  -1.223   2.387  1.00  0.00    +0.000 C 
ATOM     34  C   UNL     1      -4.433  -2.708   2.371  1.00  0.00    +0.000 C 
ATOM     35  O   UNL     1      -5.141  -0.598   3.301  1.00  0.00    +0.000 OA
ENDBRANCH  32  33
ENDBRANCH  31  32
ENDBRANCH  13  31
TORSDOF 10
