REMARK  Name = /srv/my_project/app/compsite/backup/Dave/CORINA_stuff/newPDBs/SANC00666.pdb
AUTHORGENERATED BY OPEN BABEL 2.3.2
REMARK  25 active torsions:
REMARK  status: ('A' for Active; 'I' for Inactive)
REMARK    1  A    between atoms: C_11  and  C_12
REMARK    2  A    between atoms: C_16  and  O_18
REMARK    3  A    between atoms: O_18  and  C_19
REMARK    4  A    between atoms: C_22  and  C_24
REMARK    5  A    between atoms: C_24  and  O_25
REMARK    6  A    between atoms: C_26  and  O_28
REMARK    7  A    between atoms: C_29  and  O_31
REMARK    8  A    between atoms: C_32  and  O_34
REMARK    9  A    between atoms: C_35  and  C_37
REMARK   10  A    between atoms: C_37  and  C_39
REMARK   11  A    between atoms: C_37  and  C_40
REMARK   12  A    between atoms: C_40  and  O_42
REMARK   13  A    between atoms: C_40  and  C_43
REMARK   14  A    between atoms: C_43  and  C_44
REMARK   15  A    between atoms: C_44  and  C_45
REMARK   16  A    between atoms: C_45  and  C_46
REMARK   17  A    between atoms: C_45  and  C_47
REMARK   18  A    between atoms: C_48  and  C_49
REMARK   19  A    between atoms: C_50  and  O_52
REMARK   20  A    between atoms: O_52  and  C_53
REMARK   21  A    between atoms: C_56  and  C_58
REMARK   22  A    between atoms: C_59  and  O_61
REMARK   23  A    between atoms: C_62  and  O_64
REMARK   24  A    between atoms: C_65  and  O_67
REMARK   25  A    between atoms: C_69  and  O_71
REMARK                            x       y       z     vdW  Elec       q    Type
REMARK                         _______ _______ _______ _____ _____    ______ ____
ROOT
ATOM      1  C   UNL     1       3.769  -2.877   0.210  1.00  0.00    +0.000 C 
ATOM      2  C   UNL     1       2.547  -3.778   0.006  1.00  0.00    +0.000 C 
ATOM      3  C   UNL     1       1.265  -3.064   0.414  1.00  0.00    +0.000 C 
ATOM      4  C   UNL     1       1.090  -1.721  -0.308  1.00  0.00    +0.000 C 
ATOM      5  C   UNL     1       2.346  -0.807  -0.122  1.00  0.00    +0.000 C 
ATOM      6  C   UNL     1       2.102   0.601  -0.719  1.00  0.00    +0.000 C 
ATOM      7  C   UNL     1       0.769   1.250  -0.303  1.00  0.00    +0.000 C 
ATOM      8  C   UNL     1      -0.444   0.338  -0.556  1.00  0.00    +0.000 C 
ATOM      9  C   UNL     1      -0.653   0.149  -2.078  1.00  0.00    +0.000 C 
ATOM     10  C   UNL     1      -0.153  -0.980   0.203  1.00  0.00    +0.000 C 
ATOM     11  C   UNL     1      -1.484  -1.721   0.183  1.00  0.00    +0.000 C 
ATOM     12  C   UNL     1      -2.547  -0.609   0.269  1.00  0.00    +0.000 C 
ATOM     13  C   UNL     1      -1.772   0.752   0.164  1.00  0.00    +0.000 C 
ATOM     14  C   UNL     1       3.681  -1.530  -0.591  1.00  0.00    +0.000 C 
ATOM     15  C   UNL     1       3.645  -1.781  -2.123  1.00  0.00    +0.000 C 
ATOM     16  C   UNL     1       4.966  -0.683  -0.235  1.00  0.00    +0.000 C 
ATOM     17  C   UNL     1       6.270  -1.474  -0.443  1.00  0.00    +0.000 C 
ATOM     18  C   UNL     1       6.278  -2.810   0.283  1.00  0.00    +0.000 C 
ATOM     19  C   UNL     1       5.059  -3.656  -0.060  1.00  0.00    +0.000 C 
ENDROOT
BRANCH  18  20
ATOM     20  O   UNL     1       7.464  -3.527  -0.043  1.00  0.00    +0.000 OA
ATOM     21  H   UNL     1       7.468  -3.680  -1.004  1.00  0.00    +0.000 HD
ENDBRANCH  18  20
BRANCH  13  22
ATOM     22  C   UNL     1      -2.627   1.938  -0.391  1.00  0.00    +0.000 C 
ATOM     23  C   UNL     1      -1.803   3.198  -0.688  1.00  0.00    +0.000 C 
BRANCH  22  24
ATOM     24  C   UNL     1      -3.822   2.338   0.540  1.00  0.00    +0.000 C 
BRANCH  24  25
ATOM     25  O   UNL     1      -4.761   1.273   0.632  1.00  0.00    +0.000 OA
ATOM     26  H   UNL     1      -5.064   1.063  -0.279  1.00  0.00    +0.000 HD
ENDBRANCH  24  25
BRANCH  24  27
ATOM     27  C   UNL     1      -3.408   2.715   1.972  1.00  0.00    +0.000 C 
BRANCH  27  28
ATOM     28  C   UNL     1      -4.316   3.744   2.667  1.00  0.00    +0.000 C 
BRANCH  28  29
ATOM     29  C   UNL     1      -5.741   3.343   3.095  1.00  0.00    +0.000 C 
ATOM     30  C   UNL     1      -6.767   3.447   1.968  1.00  0.00    +0.000 C 
ATOM     31  C   UNL     1      -5.811   1.984   3.788  1.00  0.00    +0.000 C 
ENDBRANCH  28  29
ENDBRANCH  27  28
ENDBRANCH  24  27
ENDBRANCH  22  24
ENDBRANCH  13  22
BRANCH  16  32
ATOM     32  O   UNL     1       5.010   0.487  -1.058  1.00  0.00    +0.000 OA
BRANCH  32  33
ATOM     33  C   UNL     1       5.807   1.561  -0.543  1.00  0.00    +0.000 C 
ATOM     34  O   UNL     1       5.269   2.023   0.697  1.00  0.00    +0.000 OA
ATOM     35  C   UNL     1       6.039   3.056   1.324  1.00  0.00    +0.000 C 
ATOM     36  C   UNL     1       7.133   2.439   2.191  1.00  0.00    +0.000 C 
ATOM     37  C   UNL     1       6.604   4.083   0.325  1.00  0.00    +0.000 C 
ATOM     38  C   UNL     1       5.749   4.072  -0.943  1.00  0.00    +0.000 C 
ATOM     39  C   UNL     1       5.813   2.691  -1.600  1.00  0.00    +0.000 C 
BRANCH  39  40
ATOM     40  O   UNL     1       7.024   2.612  -2.384  1.00  0.00    +0.000 OA
ATOM     41  H   UNL     1       7.075   3.483  -2.832  1.00  0.00    +0.000 HD
ENDBRANCH  39  40
BRANCH  38  42
ATOM     42  O   UNL     1       6.230   5.066  -1.866  1.00  0.00    +0.000 OA
ATOM     43  H   UNL     1       6.331   5.876  -1.323  1.00  0.00    +0.000 HD
ENDBRANCH  38  42
BRANCH  37  44
ATOM     44  O   UNL     1       6.594   5.408   0.874  1.00  0.00    +0.000 OA
ATOM     45  H   UNL     1       7.184   5.410   1.649  1.00  0.00    +0.000 HD
ENDBRANCH  37  44
ENDBRANCH  32  33
ENDBRANCH  16  32
BRANCH  12  46
ATOM     46  O   UNL     1      -3.456  -0.751  -0.821  1.00  0.00    +0.000 OA
BRANCH  46  47
ATOM     47  C   UNL     1      -4.570  -1.600  -0.537  1.00  0.00    +0.000 C 
ATOM     48  O   UNL     1      -4.167  -2.970  -0.594  1.00  0.00    +0.000 OA
ATOM     49  C   UNL     1      -5.245  -3.877  -0.349  1.00  0.00    +0.000 C 
ATOM     50  C   UNL     1      -6.365  -3.704  -1.392  1.00  0.00    +0.000 C 
ATOM     51  C   UNL     1      -6.824  -2.246  -1.416  1.00  0.00    +0.000 C 
ATOM     52  C   UNL     1      -5.643  -1.299  -1.602  1.00  0.00    +0.000 C 
BRANCH  52  53
ATOM     53  O   UNL     1      -6.114   0.062  -1.512  1.00  0.00    +0.000 OA
ATOM     54  H   UNL     1      -6.892   0.088  -2.107  1.00  0.00    +0.000 HD
ENDBRANCH  52  53
BRANCH  51  55
ATOM     55  O   UNL     1      -7.768  -2.042  -2.481  1.00  0.00    +0.000 OA
ATOM     56  H   UNL     1      -8.400  -2.786  -2.399  1.00  0.00    +0.000 HD
ENDBRANCH  51  55
BRANCH  50  57
ATOM     57  O   UNL     1      -7.513  -4.513  -1.109  1.00  0.00    +0.000 OA
ATOM     58  H   UNL     1      -7.171  -5.387  -0.817  1.00  0.00    +0.000 HD
ENDBRANCH  50  57
BRANCH  49  59
ATOM     59  C   UNL     1      -4.671  -5.300  -0.379  1.00  0.00    +0.000 C 
BRANCH  59  60
ATOM     60  O   UNL     1      -5.697  -6.271  -0.188  1.00  0.00    +0.000 OA
ATOM     61  H   UNL     1      -5.250  -7.135  -0.115  1.00  0.00    +0.000 HD
ENDBRANCH  59  60
ENDBRANCH  49  59
ENDBRANCH  46  47
ENDBRANCH  12  46
TORSDOF 19
