REMARK  Name = /srv/my_project/app/compsite/backup/Dave/CORINA_stuff/newPDBs/SANC00143.pdb
AUTHORGENERATED BY OPEN BABEL 2.3.2
REMARK  17 active torsions:
REMARK  status: ('A' for Active; 'I' for Inactive)
REMARK    1  A    between atoms: C_1  and  C_2
REMARK    2  A    between atoms: C_2  and  C_3
REMARK    3  A    between atoms: C_3  and  C_4
REMARK    4  A    between atoms: C_4  and  C_5
REMARK    5  A    between atoms: C_5  and  C_6
REMARK    6  A    between atoms: C_6  and  C_7
REMARK    7  A    between atoms: C_7  and  C_8
REMARK    8  A    between atoms: C_8  and  C_9
REMARK    9  A    between atoms: C_10  and  C_11
REMARK   10  A    between atoms: C_11  and  C_12
REMARK   11  A    between atoms: C_12  and  O_14
REMARK   12  A    between atoms: C_12  and  C_18
REMARK   13  A    between atoms: O_14  and  C_15
REMARK   14  A    between atoms: C_15  and  C_16
REMARK   15  A    between atoms: C_18  and  C_20
REMARK   16  A    between atoms: C_18  and  N_21
REMARK   17  A    between atoms: C_22  and  C_23
REMARK                            x       y       z     vdW  Elec       q    Type
REMARK                         _______ _______ _______ _____ _____    ______ ____
ROOT
ATOM      1  C   UNL     1       2.489  -0.078   1.016  1.00  0.00    +0.000 C 
ENDROOT
BRANCH   1   2
ATOM      2  C   UNL     1       3.587  -0.949   1.692  1.00  0.00    +0.000 C 
ATOM      3  C   UNL     1       3.826  -0.528   3.143  1.00  0.00    +0.000 C 
BRANCH   2   4
ATOM      4  N   UNL     1       4.863  -0.891   0.975  1.00  0.00    +0.000 N 
ATOM      5  C   UNL     1       5.221  -1.829   0.035  1.00  0.00    +0.000 C 
ATOM      6  C   UNL     1       6.516  -1.530  -0.669  1.00  0.00    +0.000 C 
ATOM      7  O   UNL     1       4.547  -2.818  -0.231  1.00  0.00    +0.000 OA
ATOM      8  H   UNL     1       5.348  -0.003   0.974  1.00  0.00    +0.000 HD
ENDBRANCH   2   4
ENDBRANCH   1   2
BRANCH   1   9
ATOM      9  C   UNL     1       2.121  -0.597  -0.389  1.00  0.00    +0.000 C 
BRANCH   9  11
ATOM     10  C   UNL     1      -0.021   0.813  -0.541  1.00  0.00    +0.000 C 
ATOM     11  C   UNL     1       0.903  -0.008  -1.067  1.00  0.00    +0.000 C 
BRANCH  10  12
ATOM     12  C   UNL     1      -1.229   1.390  -1.234  1.00  0.00    +0.000 C 
BRANCH  12  13
ATOM     13  C   UNL     1      -1.703   0.746  -2.544  1.00  0.00    +0.000 C 
BRANCH  13  14
ATOM     14  C   UNL     1      -2.213  -0.697  -2.427  1.00  0.00    +0.000 C 
BRANCH  14  15
ATOM     15  C   UNL     1      -3.353  -0.925  -1.427  1.00  0.00    +0.000 C 
BRANCH  15  16
ATOM     16  C   UNL     1      -4.606  -0.104  -1.740  1.00  0.00    +0.000 C 
BRANCH  16  17
ATOM     17  C   UNL     1      -5.808  -0.478  -0.867  1.00  0.00    +0.000 C 
BRANCH  17  19
ATOM     18  C   UNL     1      -6.865  -0.433   1.420  1.00  0.00    +0.000 C 
ATOM     19  C   UNL     1      -5.607  -0.150   0.613  1.00  0.00    +0.000 C 
ENDBRANCH  17  19
ENDBRANCH  16  17
ENDBRANCH  15  16
ENDBRANCH  14  15
ENDBRANCH  13  14
ENDBRANCH  12  13
ENDBRANCH  10  12
ENDBRANCH   9  11
ENDBRANCH   1   9
BRANCH   1  20
ATOM     20  O   UNL     1       2.988   1.278   0.870  1.00  0.00    +0.000 OA
BRANCH  20  21
ATOM     21  C   UNL     1       2.492   2.213   1.722  1.00  0.00    +0.000 C 
ATOM     22  C   UNL     1       3.060   3.558   1.387  1.00  0.00    +0.000 C 
ATOM     23  O   UNL     1       1.709   2.004   2.637  1.00  0.00    +0.000 OA
ENDBRANCH  20  21
ENDBRANCH   1  20
TORSDOF 13
