REMARK  Name = /srv/my_project/app/compsite/backup/Dave/CORINA_stuff/newPDBs/SANC00363.pdb
AUTHORGENERATED BY OPEN BABEL 2.3.2
REMARK  5 active torsions:
REMARK  status: ('A' for Active; 'I' for Inactive)
REMARK    1  A    between atoms: C_8  and  C_9
REMARK    2  A    between atoms: C_14  and  C_15
REMARK    3  A    between atoms: C_19  and  O_21
REMARK    4  A    between atoms: C_22  and  C_23
REMARK    5  A    between atoms: C_22  and  C_24
REMARK                            x       y       z     vdW  Elec       q    Type
REMARK                         _______ _______ _______ _____ _____    ______ ____
ROOT
ATOM      1  C   UNL     1      -1.433   0.652  -0.031  1.00  0.00    +0.000 C 
ATOM      2  C   UNL     1      -0.930   1.147   1.344  1.00  0.00    +0.000 C 
ATOM      3  C   UNL     1       0.522   1.618   1.276  1.00  0.00    +0.000 C 
ATOM      4  C   UNL     1       1.477   0.582   0.683  1.00  0.00    +0.000 C 
ATOM      5  C   UNL     1       1.954  -0.468   1.667  1.00  0.00    +0.000 C 
ATOM      6  C   UNL     1       3.228  -0.802   1.407  1.00  0.00    +0.000 C 
ATOM      7  C   UNL     1       3.749   0.006   0.242  1.00  0.00    +0.000 C 
ATOM      8  C   UNL     1       5.224   0.366   0.366  1.00  0.00    +0.000 C 
ATOM      9  C   UNL     1       3.427  -0.677  -1.104  1.00  0.00    +0.000 C 
ATOM     10  C   UNL     1       1.943  -1.079  -1.248  1.00  0.00    +0.000 C 
ATOM     11  C   UNL     1       0.938  -0.050  -0.642  1.00  0.00    +0.000 C 
ATOM     12  C   UNL     1      -0.561  -0.560  -0.548  1.00  0.00    +0.000 C 
ATOM     13  C   UNL     1      -0.684  -1.816   0.349  1.00  0.00    +0.000 C 
ATOM     14  C   UNL     1      -1.034  -0.956  -1.966  1.00  0.00    +0.000 C 
ATOM     15  C   UNL     1      -2.528  -1.157  -2.020  1.00  0.00    +0.000 C 
ATOM     16  O   UNL     1      -3.037  -2.168  -2.507  1.00  0.00    +0.000 OA
ATOM     17  C   UNL     1      -3.387   0.010  -1.548  1.00  0.00    +0.000 C 
ATOM     18  C   UNL     1      -3.000   0.482  -0.122  1.00  0.00    +0.000 C 
ATOM     19  C   UNL     1      -3.680   1.864   0.093  1.00  0.00    +0.000 C 
ATOM     20  C   UNL     1      -3.597  -0.454   0.951  1.00  0.00    +0.000 C 
ATOM     21  C   UNL     1       2.843   1.236   0.376  1.00  0.00    +0.000 C 
ENDROOT
BRANCH  17  22
ATOM     22  O   UNL     1      -4.770  -0.329  -1.618  1.00  0.00    +0.000 OA
ATOM     23  H   UNL     1      -4.830  -1.123  -2.188  1.00  0.00    +0.000 HD
ENDBRANCH  17  22
TORSDOF 1
