REMARK  Name = SANCDB_01015_minRM1.pdb
AUTHORGENERATED BY OPEN BABEL 2.3.2
REMARK  8 active torsions:
REMARK  status: ('A' for Active; 'I' for Inactive)
REMARK    1  A    between atoms: C_1  and  O_2
REMARK    2  A    between atoms: O_2  and  C_3
REMARK    3  A    between atoms: C_5  and  O_20
REMARK    4  A    between atoms: C_6  and  C_10
REMARK    5  A    between atoms: C_7  and  O_9
REMARK    6  A    between atoms: C_10  and  C_12
REMARK    7  A    between atoms: C_12  and  C_13
REMARK    8  A    between atoms: C_13  and  C_14
REMARK                            x       y       z     vdW  Elec       q    Type
REMARK                         _______ _______ _______ _____ _____    ______ ____
ROOT
ATOM      1  C   UNL     1      -3.983  -0.494   0.367  1.00  0.00    +0.000 A 
ATOM      2  C   UNL     1      -3.306  -0.908  -0.783  1.00  0.00    +0.000 A 
ATOM      3  C   UNL     1      -2.094  -0.303  -1.129  1.00  0.00    +0.000 A 
ATOM      4  C   UNL     1      -1.559   0.714  -0.334  1.00  0.00    +0.000 A 
ATOM      5  C   UNL     1      -2.230   1.117   0.821  1.00  0.00    +0.000 A 
ATOM      6  C   UNL     1      -3.440   0.517   1.169  1.00  0.00    +0.000 A 
ENDROOT
BRANCH   1   8
ATOM      7  C   UNL     1      -5.795  -2.007   0.040  1.00  0.00    +0.000 C 
ATOM      8  O   UNL     1      -5.171  -0.997   0.824  1.00  0.00    +0.000 OA
ENDBRANCH   1   8
BRANCH   5   9
ATOM      9  O   UNL     1      -1.686   2.073   1.632  1.00  0.00    +0.000 OA
ATOM     10  H   UNL     1      -2.354   2.370   2.271  1.00  0.00    +0.000 HD
ENDBRANCH   5   9
BRANCH   4  11
ATOM     11  C   UNL     1      -0.297   1.371  -0.719  1.00  0.00    +0.000 C 
ATOM     12  O   UNL     1      -0.321   2.508  -1.182  1.00  0.00    +0.000 OA
BRANCH  11  13
ATOM     13  C   UNL     1       0.969   0.563  -0.537  1.00  0.00    +0.000 C 
BRANCH  13  14
ATOM     14  C   UNL     1       2.124   1.466  -0.117  1.00  0.00    +0.000 C 
BRANCH  14  15
ATOM     15  C   UNL     1       3.380   0.671   0.144  1.00  0.00    +0.000 A 
ATOM     16  C   UNL     1       4.257   0.366  -0.905  1.00  0.00    +0.000 A 
ATOM     17  C   UNL     1       5.408  -0.387  -0.668  1.00  0.00    +0.000 A 
ATOM     18  C   UNL     1       5.690  -0.844   0.618  1.00  0.00    +0.000 A 
ATOM     19  C   UNL     1       4.821  -0.551   1.668  1.00  0.00    +0.000 A 
ATOM     20  C   UNL     1       3.670   0.202   1.432  1.00  0.00    +0.000 A 
ENDBRANCH  14  15
ENDBRANCH  13  14
ENDBRANCH  11  13
ENDBRANCH   4  11
BRANCH   3  21
ATOM     21  O   UNL     1      -1.423  -0.711  -2.249  1.00  0.00    +0.000 OA
ATOM     22  H   UNL     1      -1.977  -1.325  -2.759  1.00  0.00    +0.000 HD
ENDBRANCH   3  21
TORSDOF 7
