REMARK  Name = /srv/my_project/app/compsite/backup/Dave/CORINA_stuff/newPDBs/SANC00679.pdb
AUTHORGENERATED BY OPEN BABEL 2.3.2
REMARK  9 active torsions:
REMARK  status: ('A' for Active; 'I' for Inactive)
REMARK    1  A    between atoms: C_1  and  O_2
REMARK    2  A    between atoms: O_2  and  C_3
REMARK    3  A    between atoms: C_5  and  C_6
REMARK    4  A    between atoms: C_6  and  C_7
REMARK    5  A    between atoms: C_7  and  C_8
REMARK    6  A    between atoms: C_11  and  O_12
REMARK    7  A    between atoms: C_13  and  O_14
REMARK    8  A    between atoms: C_17  and  O_18
REMARK    9  A    between atoms: O_18  and  C_19
REMARK                            x       y       z     vdW  Elec       q    Type
REMARK                         _______ _______ _______ _____ _____    ______ ____
ROOT
ATOM      1  C   UNL     1       0.140  -2.002  -0.873  1.00  0.00    +0.000 C 
ENDROOT
BRANCH   1   4
ATOM      2  C   UNL     1      -2.989  -0.144   0.273  1.00  0.00    +0.000 A 
ATOM      3  C   UNL     1      -2.049  -1.157   0.076  1.00  0.00    +0.000 A 
ATOM      4  C   UNL     1      -0.889  -0.913  -0.674  1.00  0.00    +0.000 A 
ATOM      5  C   UNL     1      -0.685   0.362  -1.218  1.00  0.00    +0.000 A 
ATOM      6  C   UNL     1      -1.618   1.382  -1.026  1.00  0.00    +0.000 A 
ATOM      7  C   UNL     1      -2.768   1.122  -0.281  1.00  0.00    +0.000 A 
BRANCH   2   9
ATOM      8  C   UNL     1      -4.433  -1.524   1.567  1.00  0.00    +0.000 C 
ATOM      9  O   UNL     1      -4.155  -0.258   0.982  1.00  0.00    +0.000 OA
ENDBRANCH   2   9
BRANCH   6  10
ATOM     10  O   UNL     1      -1.292   2.574  -1.613  1.00  0.00    +0.000 OA
ATOM     11  C   UNL     1      -2.179   3.663  -1.393  1.00  0.00    +0.000 C 
ENDBRANCH   6  10
ENDBRANCH   1   4
BRANCH   1  12
ATOM     12  C   UNL     1       1.057  -2.208   0.339  1.00  0.00    +0.000 C 
BRANCH  12  13
ATOM     13  C   UNL     1       2.060  -1.094   0.534  1.00  0.00    +0.000 A 
ATOM     14  C   UNL     1       1.792  -0.049   1.434  1.00  0.00    +0.000 A 
ATOM     15  C   UNL     1       2.706   0.992   1.610  1.00  0.00    +0.000 A 
ATOM     16  C   UNL     1       3.886   0.986   0.884  1.00  0.00    +0.000 A 
ATOM     17  C   UNL     1       4.164  -0.041  -0.015  1.00  0.00    +0.000 A 
ATOM     18  C   UNL     1       3.259  -1.082  -0.198  1.00  0.00    +0.000 A 
BRANCH  16  19
ATOM     19  O   UNL     1       4.782   2.002   1.055  1.00  0.00    +0.000 OA
ATOM     20  H   UNL     1       5.513   1.786   0.443  1.00  0.00    +0.000 HD
ENDBRANCH  16  19
BRANCH  17  21
ATOM     21  O   UNL     1       5.346   0.018  -0.701  1.00  0.00    +0.000 OA
ATOM     22  H   UNL     1       5.391  -0.755  -1.289  1.00  0.00    +0.000 HD
ENDBRANCH  17  21
ENDBRANCH  12  13
ENDBRANCH   1  12
TORSDOF 7
