REMARK  Name = SANCDB01132.pdb
REMARK  10 active torsions:
REMARK  status: ('A' for Active; 'I' for Inactive)
REMARK    1  A    between atoms: C_1  and  C_2
REMARK    2  A    between atoms: C_2  and  C_3
REMARK    3  A    between atoms: C_6  and  C_31
REMARK    4  A    between atoms: C_9  and  C_10
REMARK    5  A    between atoms: C_15  and  C_16
REMARK    6  A    between atoms: C_19  and  O_20
REMARK    7  A    between atoms: C_21  and  C_22
REMARK    8  A    between atoms: C_21  and  C_23
REMARK    9  A    between atoms: C_27  and  C_28
REMARK   10  A    between atoms: C_31  and  O_32
REMARK                            x       y       z     vdW  Elec       q    Type
REMARK                         _______ _______ _______ _____ _____    ______ ____
ROOT
ATOM      1  C   UNL     1      -5.783  -1.466   1.960  1.00  0.00    +0.000 C 
ATOM      2  C   UNL     1      -5.269  -1.584   0.513  1.00  0.00    +0.000 C 
ATOM      3  C   UNL     1      -5.715  -2.954  -0.034  1.00  0.00    +0.000 C 
ATOM      4  C   UNL     1      -5.860  -0.477  -0.378  1.00  0.00    +0.000 C 
ATOM      5  C   UNL     1      -5.348   0.916  -0.022  1.00  0.00    +0.000 C 
ATOM      6  C   UNL     1      -3.804   1.047   0.008  1.00  0.00    +0.000 C 
ATOM      7  C   UNL     1      -3.230   1.064  -1.424  1.00  0.00    +0.000 C 
ATOM      8  C   UNL     1      -1.712   1.273  -1.429  1.00  0.00    +0.000 C 
ATOM      9  C   UNL     1      -0.902   0.240  -0.590  1.00  0.00    +0.000 C 
ATOM     10  C   UNL     1      -0.845  -1.071  -1.435  1.00  0.00    +0.000 C 
ATOM     11  C   UNL     1      -1.619  -0.127   0.725  1.00  0.00    +0.000 C 
ATOM     12  C   UNL     1      -0.920  -0.466   1.827  1.00  0.00    +0.000 C 
ATOM     13  C   UNL     1       0.574  -0.514   1.946  1.00  0.00    +0.000 C 
ATOM     14  C   UNL     1       1.343  -0.248   0.631  1.00  0.00    +0.000 C 
ATOM     15  C   UNL     1       2.918  -0.070   0.811  1.00  0.00    +0.000 C 
ATOM     16  C   UNL     1       3.285   1.101   1.758  1.00  0.00    +0.000 C 
ATOM     17  C   UNL     1       3.491  -1.376   1.440  1.00  0.00    +0.000 C 
ATOM     18  C   UNL     1       5.014  -1.483   1.389  1.00  0.00    +0.000 C 
ATOM     19  C   UNL     1       5.561  -1.315  -0.025  1.00  0.00    +0.000 C 
ATOM     20  C   UNL     1       5.100  -0.005  -0.728  1.00  0.00    +0.000 C 
ATOM     21  C   UNL     1       5.839   1.228  -0.169  1.00  0.00    +0.000 C 
ATOM     22  C   UNL     1       5.524  -0.115  -2.220  1.00  0.00    +0.000 C 
ATOM     23  C   UNL     1       3.533   0.090  -0.629  1.00  0.00    +0.000 C 
ATOM     24  C   UNL     1       2.903   1.293  -1.360  1.00  0.00    +0.000 C 
ATOM     25  C   UNL     1       1.401   1.081  -1.562  1.00  0.00    +0.000 C 
ATOM     26  C   UNL     1       0.594   0.816  -0.259  1.00  0.00    +0.000 C 
ATOM     27  C   UNL     1       0.481   2.182   0.489  1.00  0.00    +0.000 C 
ATOM     28  C   UNL     1      -3.152  -0.110   0.812  1.00  0.00    +0.000 C 
ATOM     29  C   UNL     1      -3.729  -1.503   0.465  1.00  0.00    +0.000 C 
ENDROOT
BRANCH  19  30
ATOM     30  O   UNL     1       6.986  -1.382   0.024  1.00  0.00    +0.000 OA
ATOM     31  H   UNL     1       7.227  -2.233   0.429  1.00  0.00    +0.000 HD
ENDBRANCH  19  30
BRANCH   6  32
ATOM     32  C   UNL     1      -3.541   2.378   0.726  1.00  0.00    +0.000 C 
ATOM     33  O   UNL     1      -3.253   2.541   1.900  1.00  0.00    +0.000 OA
BRANCH  32  34
ATOM     34  O   UNL     1      -3.739   3.460  -0.057  1.00  0.00    +0.000 OA
ATOM     35  H   UNL     1      -3.565   4.214   0.546  1.00  0.00    +0.000 HD
ENDBRANCH  32  34
ENDBRANCH   6  32
TORSDOF 3
