REMARK  Name = SANCDB_00888_minRM1.pdb
AUTHORGENERATED BY OPEN BABEL 2.3.2
REMARK  11 active torsions:
REMARK  status: ('A' for Active; 'I' for Inactive)
REMARK    1  A    between atoms: C_1  and  C_2
REMARK    2  A    between atoms: C_2  and  C_3
REMARK    3  A    between atoms: C_3  and  C_4
REMARK    4  A    between atoms: C_4  and  C_6
REMARK    5  A    between atoms: C_7  and  O_19
REMARK    6  A    between atoms: C_9  and  O_18
REMARK    7  A    between atoms: C_10  and  C_13
REMARK    8  A    between atoms: C_11  and  O_12
REMARK    9  A    between atoms: C_13  and  C_14
REMARK   10  A    between atoms: C_15  and  C_16
REMARK   11  A    between atoms: C_15  and  C_17
REMARK                            x       y       z     vdW  Elec       q    Type
REMARK                         _______ _______ _______ _____ _____    ______ ____
ROOT
ATOM      1  C   UNL     1      -1.388   1.123   1.047  1.00  0.00    +0.000 A 
ATOM      2  C   UNL     1      -0.886   1.831   2.150  1.00  0.00    +0.000 A 
ATOM      3  C   UNL     1       0.463   2.151   2.242  1.00  0.00    +0.000 A 
ATOM      4  C   UNL     1       1.323   1.788   1.209  1.00  0.00    +0.000 A 
ATOM      5  C   UNL     1       0.860   1.121   0.060  1.00  0.00    +0.000 A 
ATOM      6  C   UNL     1      -0.514   0.796  -0.007  1.00  0.00    +0.000 A 
ENDROOT
BRANCH   1   7
ATOM      7  C   UNL     1      -2.835   0.766   1.054  1.00  0.00    +0.000 C 
ATOM      8  O   UNL     1      -3.615   1.526   1.637  1.00  0.00    +0.000 OA
BRANCH   7   9
ATOM      9  C   UNL     1      -3.318  -0.540   0.457  1.00  0.00    +0.000 C 
BRANCH   9  11
ATOM     10  C   UNL     1      -4.684  -1.589  -1.376  1.00  0.00    +0.000 C 
ATOM     11  C   UNL     1      -4.221  -0.287  -0.744  1.00  0.00    +0.000 C 
ENDBRANCH   9  11
ENDBRANCH   7   9
ENDBRANCH   1   7
BRANCH   6  12
ATOM     12  O   UNL     1      -1.042   0.187  -1.115  1.00  0.00    +0.000 OA
ATOM     13  H   UNL     1      -0.366   0.054  -1.797  1.00  0.00    +0.000 HD
ENDBRANCH   6  12
BRANCH   4  14
ATOM     14  O   UNL     1       2.651   2.104   1.306  1.00  0.00    +0.000 OA
ATOM     15  H   UNL     1       2.815   2.521   2.169  1.00  0.00    +0.000 HD
ENDBRANCH   4  14
BRANCH   2  16
ATOM     16  O   UNL     1      -1.671   2.248   3.195  1.00  0.00    +0.000 OA
ATOM     17  H   UNL     1      -2.611   2.164   2.914  1.00  0.00    +0.000 HD
ENDBRANCH   2  16
BRANCH   5  18
ATOM     18  C   UNL     1       1.844   0.754  -1.033  1.00  0.00    +0.000 C 
BRANCH  18  19
ATOM     19  C   UNL     1       2.247  -0.698  -0.981  1.00  0.00    +0.000 C 
ATOM     20  C   UNL     1       3.464  -1.214  -0.713  1.00  0.00    +0.000 C 
ATOM     21  C   UNL     1       4.696  -0.418  -0.382  1.00  0.00    +0.000 C 
ATOM     22  C   UNL     1       3.679  -2.706  -0.713  1.00  0.00    +0.000 C 
ENDBRANCH  18  19
ENDBRANCH   5  18
TORSDOF 8
