REMARK  Name = /srv/my_project/app/compsite/backup/Dave/CORINA_stuff/newPDBs/SANC00304.pdb
AUTHORGENERATED BY OPEN BABEL 2.3.2
REMARK  0 active torsions:
REMARK  status: ('A' for Active; 'I' for Inactive)
REMARK                            x       y       z     vdW  Elec       q    Type
REMARK                         _______ _______ _______ _____ _____    ______ ____
ROOT
ATOM      1  O   UNL     1       3.585  -0.668  -0.011  1.00  0.00    +0.000 OA
ATOM      2  C   UNL     1       2.391  -0.420  -0.001  1.00  0.00    +0.000 C 
ATOM      3  C   UNL     1       1.740   0.935   0.302  1.00  0.00    +0.000 C 
ATOM      4  C   UNL     1       0.279   0.620   0.163  1.00  0.00    +0.000 A 
ATOM      5  C   UNL     1      -0.822   1.442   0.317  1.00  0.00    +0.000 A 
ATOM      6  C   UNL     1      -2.088   0.878   0.126  1.00  0.00    +0.000 A 
ATOM      7  C   UNL     1      -2.223  -0.482  -0.212  1.00  0.00    +0.000 A 
ATOM      8 BR   UNL     1      -3.954  -1.206  -0.463  1.00  0.00    +0.000 Br
ATOM      9  C   UNL     1      -1.107  -1.306  -0.366  1.00  0.00    +0.000 A 
ATOM     10  C   UNL     1       0.126  -0.725  -0.172  1.00  0.00    +0.000 A 
ATOM     11  N   UNL     1       1.371  -1.326  -0.266  1.00  0.00    +0.000 N 
ATOM     12  H   UNL     1       1.546  -2.293  -0.494  1.00  0.00    +0.000 HD
ENDROOT
TORSDOF 0
