REMARK  Name = /srv/my_project/app/compsite/backup/Dave/CORINA_stuff/newPDBs/SANC00126.pdb
AUTHORGENERATED BY OPEN BABEL 2.3.2
REMARK  2 active torsions:
REMARK  status: ('A' for Active; 'I' for Inactive)
REMARK    1  A    between atoms: C_10  and  O_11
REMARK    2  A    between atoms: C_12  and  O_13
REMARK                            x       y       z     vdW  Elec       q    Type
REMARK                         _______ _______ _______ _____ _____    ______ ____
ROOT
ATOM      1  O   UNL     1       3.361   2.579   1.167  1.00  0.00    +0.000 OA
ATOM      2  C   UNL     1       2.558   1.721   0.814  1.00  0.00    +0.000 C 
ATOM      3  C   UNL     1       1.003   2.003   0.686  1.00  0.00    +0.000 C 
ATOM      4  N   UNL     1       0.819   3.229  -0.100  1.00  0.00    +0.000 NA
ATOM      5  C   UNL     1      -0.566   3.684  -0.029  1.00  0.00    +0.000 C 
ATOM      6  C   UNL     1      -1.467   2.670  -0.730  1.00  0.00    +0.000 C 
ATOM      7  C   UNL     1      -1.312   1.218  -0.209  1.00  0.00    +0.000 C 
ATOM      8  C   UNL     1      -2.040   0.989   1.110  1.00  0.00    +0.000 C 
ATOM      9  C   UNL     1      -2.445  -0.233   1.495  1.00  0.00    +0.000 C 
ATOM     10  C   UNL     1      -2.252  -1.465   0.653  1.00  0.00    +0.000 C 
ATOM     11  C   UNL     1      -1.569  -1.219  -0.766  1.00  0.00    +0.000 C 
ATOM     12  C   UNL     1      -1.842   0.219  -1.272  1.00  0.00    +0.000 C 
ATOM     13 BR   UNL     1      -3.741   0.498  -1.721  1.00  0.00    +0.000 Br
ATOM     14  N   UNL     1      -0.066  -1.407  -0.760  1.00  0.00    +0.000 NA
ATOM     15  C   UNL     1       0.683  -0.331  -0.175  1.00  0.00    +0.000 C 
ATOM     16  C   UNL     1       0.153   0.884   0.060  1.00  0.00    +0.000 C 
ATOM     17  C   UNL     1       2.051  -0.579   0.065  1.00  0.00    +0.000 A 
ATOM     18  C   UNL     1       2.704  -1.803  -0.116  1.00  0.00    +0.000 A 
ATOM     19  C   UNL     1       4.023  -1.578   0.217  1.00  0.00    +0.000 A 
ATOM     20  N   UNL     1       4.157  -0.249   0.592  1.00  0.00    +0.000 N 
ATOM     21  H   UNL     1       5.019   0.204   0.883  1.00  0.00    +0.000 HD
ATOM     22  C   UNL     1       2.930   0.363   0.513  1.00  0.00    +0.000 A 
ATOM     23  C   UNL     1       1.946  -2.994  -0.582  1.00  0.00    +0.000 C 
ATOM     24  C   UNL     1       0.433  -2.790  -0.281  1.00  0.00    +0.000 C 
ATOM     25  H   UNL     1       1.435   3.955   0.285  1.00  0.00    +0.000 HD
ATOM     26  H   UNL     1       0.146  -1.419  -1.767  1.00  0.00    +0.000 HD
ENDROOT
BRANCH  10  27
ATOM     27  O   UNL     1      -3.541  -2.054   0.423  1.00  0.00    +0.000 OA
ATOM     28  H   UNL     1      -4.045  -2.051   1.259  1.00  0.00    +0.000 HD
ENDBRANCH  10  27
BRANCH  11  29
ATOM     29  O   UNL     1      -2.085  -2.156  -1.710  1.00  0.00    +0.000 OA
ATOM     30  H   UNL     1      -3.034  -2.261  -1.462  1.00  0.00    +0.000 HD
ENDBRANCH  11  29
TORSDOF 2
