REMARK  Name = SANCDB_01023_minRM1.pdb
AUTHORGENERATED BY OPEN BABEL 2.3.2
REMARK  5 active torsions:
REMARK  status: ('A' for Active; 'I' for Inactive)
REMARK    1  A    between atoms: C_1  and  C_2
REMARK    2  A    between atoms: C_1  and  C_6
REMARK    3  A    between atoms: C_2  and  C_3
REMARK    4  A    between atoms: C_3  and  O_5
REMARK    5  A    between atoms: C_6  and  O_8
REMARK                            x       y       z     vdW  Elec       q    Type
REMARK                         _______ _______ _______ _____ _____    ______ ____
ROOT
ATOM      1  C   UNL     1       0.503  -0.703  -0.565  1.00  0.00    +0.000 C 
ENDROOT
BRANCH   1   2
ATOM      2  C   UNL     1       1.447   0.316   0.010  1.00  0.00    +0.000 C 
ATOM      3  O   UNL     1       1.377   0.856   1.100  1.00  0.00    +0.000 OA
BRANCH   2   4
ATOM      4  O   UNL     1       2.465   0.591  -0.829  1.00  0.00    +0.000 OA
ATOM      5  H   UNL     1       3.000   1.256  -0.348  1.00  0.00    +0.000 HD
ENDBRANCH   2   4
ENDBRANCH   1   2
BRANCH   1   6
ATOM      6  C   UNL     1      -0.690  -0.943   0.352  1.00  0.00    +0.000 C 
BRANCH   6   7
ATOM      7  C   UNL     1      -1.600   0.245   0.511  1.00  0.00    +0.000 C 
ATOM      8  O   UNL     1      -2.415   0.392   1.408  1.00  0.00    +0.000 OA
BRANCH   7   9
ATOM      9  O   UNL     1      -1.518   1.150  -0.480  1.00  0.00    +0.000 OA
ATOM     10  H   UNL     1      -2.170   1.836  -0.220  1.00  0.00    +0.000 HD
ENDBRANCH   7   9
ENDBRANCH   6   7
ENDBRANCH   1   6
TORSDOF 5
