REMARK  Name = SANC00542.pdb
AUTHORGENERATED BY OPEN BABEL 2.3.2
REMARK  7 active torsions:
REMARK  status: ('A' for Active; 'I' for Inactive)
REMARK    1  A    between atoms: C_10  and  O_11
REMARK    2  A    between atoms: C_10  and  C_12
REMARK    3  A    between atoms: C_12  and  C_13
REMARK    4  A    between atoms: C_12  and  C_14
REMARK    5  A    between atoms: C_17  and  C_18
REMARK    6  A    between atoms: C_17  and  O_19
REMARK    7  A    between atoms: C_22  and  O_24
REMARK                            x       y       z     vdW  Elec       q    Type
REMARK                         _______ _______ _______ _____ _____    ______ ____
ROOT
ATOM      1  C   UNL     1       4.279   1.649  -0.679  1.00  0.00    +0.000 C 
ATOM      2  C   UNL     1       3.598   0.780   0.092  1.00  0.00    +0.000 C 
ATOM      3  C   UNL     1       2.728   1.226   1.253  1.00  0.00    +0.000 C 
ATOM      4  C   UNL     1       1.899   2.504   1.048  1.00  0.00    +0.000 C 
ATOM      5  C   UNL     1       0.900   2.411  -0.043  1.00  0.00    +0.000 C 
ATOM      6  C   UNL     1      -0.340   2.572   0.418  1.00  0.00    +0.000 C 
ATOM      7  C   UNL     1      -1.642   2.613  -0.297  1.00  0.00    +0.000 C 
ATOM      8  C   UNL     1      -1.877   1.562  -1.388  1.00  0.00    +0.000 C 
ATOM      9  C   UNL     1      -2.235   0.099  -1.005  1.00  0.00    +0.000 C 
ATOM     10  C   UNL     1      -1.043  -0.695  -0.485  1.00  0.00    +0.000 C 
ATOM     11  C   UNL     1      -0.738  -1.960  -0.839  1.00  0.00    +0.000 C 
ATOM     12  C   UNL     1       0.356  -2.852  -0.304  1.00  0.00    +0.000 C 
ATOM     13  C   UNL     1      -0.264  -3.805   0.729  1.00  0.00    +0.000 C 
ATOM     14  C   UNL     1       1.593  -2.155   0.304  1.00  0.00    +0.000 C 
ATOM     15  C   UNL     1       2.432  -1.365  -0.716  1.00  0.00    +0.000 C 
ATOM     16  C   UNL     1       3.713  -0.713  -0.158  1.00  0.00    +0.000 C 
ATOM     17  C   UNL     1      -0.217   2.775   1.868  1.00  0.00    +0.000 C 
ATOM     18  O   UNL     1      -1.142   2.953   2.638  1.00  0.00    +0.000 OA
ATOM     19  O   UNL     1       1.099   2.733   2.215  1.00  0.00    +0.000 OA
ENDROOT
BRANCH   9  20
ATOM     20  C   UNL     1      -3.484  -0.107  -0.085  1.00  0.00    +0.000 C 
ATOM     21  C   UNL     1      -3.250   0.061   1.421  1.00  0.00    +0.000 C 
ATOM     22  C   UNL     1      -4.696   0.728  -0.521  1.00  0.00    +0.000 C 
ENDBRANCH   9  20
BRANCH   9  23
ATOM     23  O   UNL     1      -2.616  -0.488  -2.274  1.00  0.00    +0.000 OA
ATOM     24  H   UNL     1      -1.807  -0.569  -2.808  1.00  0.00    +0.000 HD
ENDBRANCH   9  23
BRANCH  12  25
ATOM     25  O   UNL     1       0.785  -3.642  -1.418  1.00  0.00    +0.000 OA
ATOM     26  H   UNL     1       1.420  -4.296  -1.081  1.00  0.00    +0.000 HD
ENDBRANCH  12  25
BRANCH  16  27
ATOM     27  O   UNL     1       4.144  -1.343   1.041  1.00  0.00    +0.000 OA
ATOM     28  H   UNL     1       4.950  -0.879   1.327  1.00  0.00    +0.000 HD
ENDBRANCH  16  27
TORSDOF 4
