REMARK  Name = /srv/my_project/app/compsite/backup/Dave/CORINA_stuff/newPDBs/SANC00241.pdb
AUTHORGENERATED BY OPEN BABEL 2.3.2
REMARK  5 active torsions:
REMARK  status: ('A' for Active; 'I' for Inactive)
REMARK    1  A    between atoms: C_1  and  O_2
REMARK    2  A    between atoms: O_2  and  C_3
REMARK    3  A    between atoms: C_6  and  C_7
REMARK    4  A    between atoms: C_13  and  O_14
REMARK    5  A    between atoms: C_16  and  O_17
REMARK                            x       y       z     vdW  Elec       q    Type
REMARK                         _______ _______ _______ _____ _____    ______ ____
ROOT
ATOM      1  C   UNL     1      -0.511   1.179   0.718  1.00  0.00    +0.000 C 
ATOM      2  C   UNL     1       0.593   0.677   0.139  1.00  0.00    +0.000 C 
ATOM      3  C   UNL     1       0.718  -0.556  -0.697  1.00  0.00    +0.000 C 
ATOM      4  O   UNL     1       1.825  -1.373  -0.292  1.00  0.00    +0.000 OA
ATOM      5  C   UNL     1       3.012  -0.691  -0.246  1.00  0.00    +0.000 A 
ATOM      6  C   UNL     1       4.171  -1.445  -0.437  1.00  0.00    +0.000 A 
ATOM      7  C   UNL     1       5.411  -0.813  -0.391  1.00  0.00    +0.000 A 
ATOM      8  C   UNL     1       5.510   0.553  -0.144  1.00  0.00    +0.000 A 
ATOM      9  C   UNL     1       4.353   1.297   0.072  1.00  0.00    +0.000 A 
ATOM     10  C   UNL     1       3.099   0.678   0.022  1.00  0.00    +0.000 A 
ATOM     11  C   UNL     1       1.863   1.431   0.299  1.00  0.00    +0.000 C 
ATOM     12  O   UNL     1       1.913   2.611   0.630  1.00  0.00    +0.000 OA
ENDROOT
BRANCH   1  16
ATOM     13  C   UNL     1      -4.375  -0.620   0.433  1.00  0.00    +0.000 A 
ATOM     14  C   UNL     1      -4.050   0.483  -0.357  1.00  0.00    +0.000 A 
ATOM     15  C   UNL     1      -2.784   1.072  -0.258  1.00  0.00    +0.000 A 
ATOM     16  C   UNL     1      -1.834   0.561   0.631  1.00  0.00    +0.000 A 
ATOM     17  C   UNL     1      -2.159  -0.540   1.426  1.00  0.00    +0.000 A 
ATOM     18  C   UNL     1      -3.424  -1.126   1.323  1.00  0.00    +0.000 A 
BRANCH  13  20
ATOM     19  C   UNL     1      -6.582  -0.792  -0.432  1.00  0.00    +0.000 C 
ATOM     20  O   UNL     1      -5.568  -1.288   0.433  1.00  0.00    +0.000 OA
ENDBRANCH  13  20
ENDBRANCH   1  16
BRANCH   7  21
ATOM     21  O   UNL     1       6.568  -1.508  -0.584  1.00  0.00    +0.000 OA
ATOM     22  H   UNL     1       6.356  -2.446  -0.723  1.00  0.00    +0.000 HD
ENDBRANCH   7  21
BRANCH   9  23
ATOM     23  O   UNL     1       4.517   2.630   0.338  1.00  0.00    +0.000 OA
ATOM     24  H   UNL     1       3.632   3.017   0.531  1.00  0.00    +0.000 HD
ENDBRANCH   9  23
TORSDOF 4
