REMARK  Name = /srv/my_project/app/compsite/backup/Dave/CORINA_stuff/newPDBs/SANC00511.pdb
AUTHORGENERATED BY OPEN BABEL 2.3.2
REMARK  25 active torsions:
REMARK  status: ('A' for Active; 'I' for Inactive)
REMARK    1  A    between atoms: C_2  and  O_3
REMARK    2  A    between atoms: O_3  and  C_4
REMARK    3  A    between atoms: C_15  and  O_17
REMARK    4  A    between atoms: C_20  and  C_21
REMARK    5  A    between atoms: C_24  and  O_26
REMARK    6  A    between atoms: C_28  and  C_29
REMARK    7  A    between atoms: C_30  and  C_32
REMARK    8  A    between atoms: C_32  and  C_34
REMARK    9  A    between atoms: C_32  and  C_35
REMARK   10  A    between atoms: C_35  and  O_37
REMARK   11  A    between atoms: C_35  and  C_38
REMARK   12  A    between atoms: C_38  and  C_39
REMARK   13  A    between atoms: C_39  and  C_40
REMARK   14  A    between atoms: C_40  and  C_41
REMARK   15  A    between atoms: C_40  and  C_42
REMARK   16  A    between atoms: C_44  and  C_46
REMARK   17  A    between atoms: C_47  and  O_49
REMARK   18  A    between atoms: C_50  and  O_52
REMARK   19  A    between atoms: O_52  and  C_53
REMARK   20  A    between atoms: C_53  and  C_55
REMARK   21  A    between atoms: C_58  and  O_59
REMARK   22  A    between atoms: O_59  and  C_60
REMARK   23  A    between atoms: C_63  and  O_65
REMARK   24  A    between atoms: O_65  and  C_66
REMARK   25  A    between atoms: C_66  and  C_67
REMARK                            x       y       z     vdW  Elec       q    Type
REMARK                         _______ _______ _______ _____ _____    ______ ____
ROOT
ATOM      1  C   UNL     1       0.162   0.482   1.209  1.00  0.00    +0.000 C 
ATOM      2  C   UNL     1      -0.192   1.490   0.085  1.00  0.00    +0.000 C 
ATOM      3  C   UNL     1      -1.710   1.627   0.164  1.00  0.00    +0.000 C 
ATOM      4  C   UNL     1      -2.455   2.263  -1.017  1.00  0.00    +0.000 C 
ATOM      5  C   UNL     1      -1.933   3.683  -1.277  1.00  0.00    +0.000 C 
ATOM      6  C   UNL     1      -2.791   4.452  -2.226  1.00  0.00    +0.000 C 
ATOM      7  C   UNL     1      -4.054   4.124  -2.551  1.00  0.00    +0.000 C 
ATOM      8  C   UNL     1      -4.810   4.968  -3.566  1.00  0.00    +0.000 C 
ATOM      9  C   UNL     1      -6.295   5.167  -3.234  1.00  0.00    +0.000 C 
ATOM     10  C   UNL     1      -6.593   4.854  -1.775  1.00  0.00    +0.000 C 
ATOM     11  C   UNL     1      -6.196   3.423  -1.394  1.00  0.00    +0.000 C 
ATOM     12  C   UNL     1      -4.803   2.937  -1.923  1.00  0.00    +0.000 C 
ATOM     13  C   UNL     1      -5.015   1.887  -3.043  1.00  0.00    +0.000 C 
ATOM     14  C   UNL     1      -3.985   2.294  -0.718  1.00  0.00    +0.000 C 
ATOM     15  C   UNL     1      -4.504   0.899  -0.244  1.00  0.00    +0.000 C 
ATOM     16  C   UNL     1      -3.661   0.287   0.892  1.00  0.00    +0.000 C 
ATOM     17  C   UNL     1      -2.179   0.193   0.508  1.00  0.00    +0.000 C 
ATOM     18  C   UNL     1      -2.007  -0.797  -0.665  1.00  0.00    +0.000 C 
ATOM     19  C   UNL     1      -1.209  -0.089   1.696  1.00  0.00    +0.000 C 
ENDROOT
BRANCH   9  20
ATOM     20  O   UNL     1      -7.093   4.334  -4.078  1.00  0.00    +0.000 OA
ATOM     21  H   UNL     1      -8.020   4.441  -3.803  1.00  0.00    +0.000 HD
ENDBRANCH   9  20
BRANCH  15  22
ATOM     22  O   UNL     1      -5.847   1.001   0.223  1.00  0.00    +0.000 OA
ATOM     23  H   UNL     1      -6.154   0.103   0.437  1.00  0.00    +0.000 HD
ENDBRANCH  15  22
BRANCH  19  24
ATOM     24  C   UNL     1      -1.287  -1.430   2.489  1.00  0.00    +0.000 C 
ATOM     25  C   UNL     1      -0.416  -1.303   3.755  1.00  0.00    +0.000 C 
BRANCH  24  26
ATOM     26  C   UNL     1      -1.002  -2.769   1.763  1.00  0.00    +0.000 C 
BRANCH  26  27
ATOM     27  O   UNL     1       0.386  -2.934   1.495  1.00  0.00    +0.000 OA
ATOM     28  H   UNL     1       0.628  -2.214   0.872  1.00  0.00    +0.000 HD
ENDBRANCH  26  27
BRANCH  26  29
ATOM     29  C   UNL     1      -1.428  -4.030   2.544  1.00  0.00    +0.000 C 
BRANCH  29  30
ATOM     30  C   UNL     1      -2.927  -4.095   2.851  1.00  0.00    +0.000 C 
BRANCH  30  31
ATOM     31  C   UNL     1      -3.386  -5.478   3.354  1.00  0.00    +0.000 C 
ATOM     32  C   UNL     1      -2.729  -5.862   4.680  1.00  0.00    +0.000 C 
ATOM     33  C   UNL     1      -4.909  -5.495   3.506  1.00  0.00    +0.000 C 
ENDBRANCH  30  31
ENDBRANCH  29  30
ENDBRANCH  26  29
ENDBRANCH  24  26
ENDBRANCH  19  24
BRANCH   1  34
ATOM     34  O   UNL     1       1.042  -0.526   0.732  1.00  0.00    +0.000 OA
BRANCH  34  35
ATOM     35  C   UNL     1       2.389  -0.063   0.540  1.00  0.00    +0.000 C 
ATOM     36  O   UNL     1       2.611   0.347  -0.811  1.00  0.00    +0.000 OA
ATOM     37  C   UNL     1       2.342  -0.682  -1.777  1.00  0.00    +0.000 C 
ATOM     38  C   UNL     1       2.961  -0.213  -3.091  1.00  0.00    +0.000 C 
ATOM     39  C   UNL     1       2.872  -2.072  -1.355  1.00  0.00    +0.000 C 
ATOM     40  C   UNL     1       3.930  -1.949  -0.253  1.00  0.00    +0.000 C 
ATOM     41  C   UNL     1       3.386  -1.172   0.965  1.00  0.00    +0.000 C 
BRANCH  39  42
ATOM     42  O   UNL     1       1.761  -2.856  -0.908  1.00  0.00    +0.000 OA
ATOM     43  H   UNL     1       2.085  -3.702  -0.549  1.00  0.00    +0.000 HD
ENDBRANCH  39  42
BRANCH  41  44
ATOM     44  O   UNL     1       4.525  -0.636   1.690  1.00  0.00    +0.000 OA
BRANCH  44  45
ATOM     45  C   UNL     1       4.282  -0.185   2.947  1.00  0.00    +0.000 C 
ATOM     46  C   UNL     1       5.562   0.249   3.592  1.00  0.00    +0.000 C 
ATOM     47  O   UNL     1       3.182  -0.120   3.474  1.00  0.00    +0.000 OA
ENDBRANCH  44  45
ENDBRANCH  41  44
BRANCH  40  48
ATOM     48  O   UNL     1       5.084  -1.284  -0.823  1.00  0.00    +0.000 OA
BRANCH  48  49
ATOM     49  C   UNL     1       6.301  -1.734  -0.432  1.00  0.00    +0.000 C 
ATOM     50  O   UNL     1       6.515  -2.702   0.280  1.00  0.00    +0.000 OA
BRANCH  49  51
ATOM     51  C   UNL     1       7.375  -0.882  -1.009  1.00  0.00    +0.000 A 
ATOM     52  C   UNL     1       8.698  -1.324  -0.908  1.00  0.00    +0.000 A 
ATOM     53  C   UNL     1       9.737  -0.550  -1.432  1.00  0.00    +0.000 A 
ATOM     54  C   UNL     1       9.472   0.671  -2.057  1.00  0.00    +0.000 A 
ATOM     55  C   UNL     1       8.153   1.117  -2.153  1.00  0.00    +0.000 A 
ATOM     56  C   UNL     1       7.107   0.345  -1.630  1.00  0.00    +0.000 A 
BRANCH  54  57
ATOM     57  O   UNL     1      10.578   1.325  -2.524  1.00  0.00    +0.000 OA
ATOM     58  C   UNL     1      10.364   2.573  -3.172  1.00  0.00    +0.000 C 
ENDBRANCH  54  57
ENDBRANCH  49  51
ENDBRANCH  48  49
ENDBRANCH  40  48
ENDBRANCH  34  35
ENDBRANCH   1  34
TORSDOF 17
