REMARK  Name = SANCDB_00927_minRM1.pdb
AUTHORGENERATED BY OPEN BABEL 2.3.2
REMARK  5 active torsions:
REMARK  status: ('A' for Active; 'I' for Inactive)
REMARK    1  A    between atoms: C_1  and  O_2
REMARK    2  A    between atoms: O_2  and  C_3
REMARK    3  A    between atoms: C_4  and  O_15
REMARK    4  A    between atoms: C_5  and  O_14
REMARK    5  A    between atoms: O_15  and  C_16
REMARK                            x       y       z     vdW  Elec       q    Type
REMARK                         _______ _______ _______ _____ _____    ______ ____
ROOT
ATOM      1  C   UNL     1      -0.124   0.615   0.157  1.00  0.00    +0.000 A 
ATOM      2  C   UNL     1      -1.190  -0.053  -0.470  1.00  0.00    +0.000 A 
ATOM      3  C   UNL     1      -0.994  -1.323  -1.032  1.00  0.00    +0.000 A 
ATOM      4  C   UNL     1       0.240  -1.956  -0.934  1.00  0.00    +0.000 A 
ATOM      5  C   UNL     1       1.274  -1.302  -0.267  1.00  0.00    +0.000 A 
ATOM      6  C   UNL     1       1.117  -0.029   0.288  1.00  0.00    +0.000 A 
ATOM      7  C   UNL     1       2.262   0.569   0.967  1.00  0.00    +0.000 A 
ATOM      8  C   UNL     1       3.420  -0.094   1.045  1.00  0.00    +0.000 A 
ATOM      9  C   UNL     1       3.601  -1.433   0.463  1.00  0.00    +0.000 A 
ATOM     10  O   UNL     1       4.676  -2.016   0.548  1.00  0.00    +0.000 OA
ATOM     11  O   UNL     1       2.503  -1.990  -0.179  1.00  0.00    +0.000 OA
ENDROOT
BRANCH   1  13
ATOM     12  C   UNL     1      -0.761   2.843  -0.179  1.00  0.00    +0.000 C 
ATOM     13  O   UNL     1      -0.250   1.862   0.724  1.00  0.00    +0.000 OA
ENDBRANCH   1  13
BRANCH   3  14
ATOM     14  O   UNL     1      -2.034  -1.941  -1.671  1.00  0.00    +0.000 OA
ATOM     15  H   UNL     1      -1.719  -2.769  -2.069  1.00  0.00    +0.000 HD
ENDBRANCH   3  14
BRANCH   2  16
ATOM     16  O   UNL     1      -2.420   0.549  -0.575  1.00  0.00    +0.000 OA
ATOM     17  C   UNL     1      -3.266   0.111   0.489  1.00  0.00    +0.000 C 
ENDBRANCH   2  16
TORSDOF 3
