REMARK  Name = /srv/my_project/app/compsite/backup/Dave/CORINA_stuff/newPDBs/SANC00442.pdb
AUTHORGENERATED BY OPEN BABEL 2.3.2
REMARK  9 active torsions:
REMARK  status: ('A' for Active; 'I' for Inactive)
REMARK    1  A    between atoms: C_1  and  C_2
REMARK    2  A    between atoms: C_2  and  C_25
REMARK    3  A    between atoms: C_3  and  C_4
REMARK    4  A    between atoms: C_4  and  C_5
REMARK    5  A    between atoms: C_13  and  C_24
REMARK    6  A    between atoms: C_15  and  O_23
REMARK    7  A    between atoms: C_18  and  C_19
REMARK    8  A    between atoms: C_18  and  C_20
REMARK    9  A    between atoms: C_20  and  O_22
REMARK                            x       y       z     vdW  Elec       q    Type
REMARK                         _______ _______ _______ _____ _____    ______ ____
ROOT
ATOM      1  C   UNL     1       0.662  -0.297  -0.104  1.00  0.00    +0.000 C 
ATOM      2  C   UNL     1       0.777  -1.184   1.142  1.00  0.00    +0.000 C 
ATOM      3  C   UNL     1       1.751  -1.138   2.067  1.00  0.00    +0.000 C 
ATOM      4  C   UNL     1      -0.355  -2.167   1.288  1.00  0.00    +0.000 C 
ATOM      5  C   UNL     1      -1.691  -1.433   1.348  1.00  0.00    +0.000 C 
ATOM      6  C   UNL     1      -1.901  -0.517   0.119  1.00  0.00    +0.000 C 
ATOM      7  C   UNL     1      -0.713   0.509  -0.068  1.00  0.00    +0.000 C 
ATOM      8  C   UNL     1      -0.896   1.278  -1.419  1.00  0.00    +0.000 C 
ATOM      9  C   UNL     1      -2.329   1.355  -1.951  1.00  0.00    +0.000 C 
ATOM     10  C   UNL     1      -3.368   1.382  -0.835  1.00  0.00    +0.000 C 
ATOM     11  C   UNL     1      -3.347   0.105   0.048  1.00  0.00    +0.000 C 
ATOM     12  C   UNL     1      -3.947   0.482   1.421  1.00  0.00    +0.000 C 
ATOM     13  C   UNL     1      -0.658   1.546   1.085  1.00  0.00    +0.000 C 
ENDROOT
BRANCH  11  14
ATOM     14  C   UNL     1      -4.289  -0.980  -0.510  1.00  0.00    +0.000 C 
ATOM     15  O   UNL     1      -4.641  -1.994   0.072  1.00  0.00    +0.000 OA
BRANCH  14  16
ATOM     16  O   UNL     1      -4.746  -0.767  -1.761  1.00  0.00    +0.000 OA
ATOM     17  H   UNL     1      -5.302  -1.561  -1.924  1.00  0.00    +0.000 HD
ENDBRANCH  14  16
ENDBRANCH  11  14
BRANCH   9  18
ATOM     18  O   UNL     1      -2.532   0.245  -2.822  1.00  0.00    +0.000 OA
ATOM     19  H   UNL     1      -3.494   0.078  -2.876  1.00  0.00    +0.000 HD
ENDBRANCH   9  18
BRANCH   1  20
ATOM     20  C   UNL     1       1.905   0.604  -0.395  1.00  0.00    +0.000 C 
BRANCH  20  23
ATOM     21  C   UNL     1       4.879   1.079   0.461  1.00  0.00    +0.000 C 
ATOM     22  C   UNL     1       4.407  -0.009  -0.470  1.00  0.00    +0.000 C 
ATOM     23  C   UNL     1       3.120  -0.183  -0.836  1.00  0.00    +0.000 C 
BRANCH  22  24
ATOM     24  C   UNL     1       5.413  -0.919  -1.014  1.00  0.00    +0.000 C 
ATOM     25  C   UNL     1       6.725  -0.913  -0.747  1.00  0.00    +0.000 C 
ENDBRANCH  22  24
ENDBRANCH  20  23
ENDBRANCH   1  20
TORSDOF 6
