REMARK  Name = /srv/my_project/app/compsite/backup/Dave/CORINA_stuff/newPDBs/SANC00207.pdb
AUTHORGENERATED BY OPEN BABEL 2.3.2
REMARK  7 active torsions:
REMARK  status: ('A' for Active; 'I' for Inactive)
REMARK    1  A    between atoms: C_1  and  C_2
REMARK    2  A    between atoms: C_2  and  C_4
REMARK    3  A    between atoms: C_2  and  C_15
REMARK    4  A    between atoms: C_5  and  C_6
REMARK    5  A    between atoms: C_6  and  C_9
REMARK    6  A    between atoms: C_9  and  C_10
REMARK    7  A    between atoms: C_9  and  C_12
REMARK                            x       y       z     vdW  Elec       q    Type
REMARK                         _______ _______ _______ _____ _____    ______ ____
ROOT
ATOM      1  C   UNL     1      -1.161   0.485   0.518  1.00  0.00    +0.000 C 
ATOM      2 BR   UNL     1      -1.917   0.926   2.292  1.00  0.00    +0.000 Br
ENDROOT
BRANCH   1   3
ATOM      3  C   UNL     1      -2.155  -0.361  -0.342  1.00  0.00    +0.000 C 
ATOM      4  C   UNL     1      -2.485  -1.728   0.288  1.00  0.00    +0.000 C 
ATOM      5 CL   UNL     1      -1.336  -0.714  -1.942  1.00  0.00    +0.000 Cl
BRANCH   3   6
ATOM      6  C   UNL     1      -3.461   0.318  -0.747  1.00  0.00    +0.000 C 
ATOM      7  C   UNL     1      -3.800   1.608  -0.622  1.00  0.00    +0.000 C 
ATOM      8 BR   UNL     1      -5.433   2.298  -1.175  1.00  0.00    +0.000 Br
ENDBRANCH   3   6
ENDBRANCH   1   3
BRANCH   1  10
ATOM      9  C   UNL     1       1.359   0.355   0.410  1.00  0.00    +0.000 C 
ATOM     10  C   UNL     1       0.180  -0.151   0.821  1.00  0.00    +0.000 C 
BRANCH   9  12
ATOM     11  C   UNL     1       3.679   0.937   1.141  1.00  0.00    +0.000 C 
ATOM     12  C   UNL     1       2.768  -0.189   0.629  1.00  0.00    +0.000 C 
ATOM     13 CL   UNL     1       2.773  -1.462   1.924  1.00  0.00    +0.000 Cl
BRANCH  12  14
ATOM     14  C   UNL     1       3.327  -0.859  -0.637  1.00  0.00    +0.000 C 
ATOM     15 BR   UNL     1       3.494   0.345  -2.168  1.00  0.00    +0.000 Br
ENDBRANCH  12  14
ENDBRANCH   9  12
ENDBRANCH   1  10
TORSDOF 5
