REMARK  Name = SANCDB_00959_minRM1.pdb
AUTHORGENERATED BY OPEN BABEL 2.3.2
REMARK  9 active torsions:
REMARK  status: ('A' for Active; 'I' for Inactive)
REMARK    1  A    between atoms: C_1  and  C_2
REMARK    2  A    between atoms: C_2  and  C_25
REMARK    3  A    between atoms: C_3  and  C_4
REMARK    4  A    between atoms: C_4  and  O_5
REMARK    5  A    between atoms: O_5  and  C_6
REMARK    6  A    between atoms: C_8  and  O_24
REMARK    7  A    between atoms: C_15  and  C_22
REMARK    8  A    between atoms: C_15  and  O_23
REMARK    9  A    between atoms: C_20  and  O_21
REMARK                            x       y       z     vdW  Elec       q    Type
REMARK                         _______ _______ _______ _____ _____    ______ ____
ROOT
ATOM      1  C   UNL     1       1.826  -0.115  -0.172  1.00  0.00    +0.000 A 
ATOM      2  C   UNL     1       1.647   0.844  -1.161  1.00  0.00    +0.000 A 
ATOM      3  C   UNL     1       0.364   1.316  -1.439  1.00  0.00    +0.000 A 
ATOM      4  C   UNL     1      -0.785   0.855  -0.748  1.00  0.00    +0.000 A 
ATOM      5  C   UNL     1      -0.586  -0.121   0.254  1.00  0.00    +0.000 A 
ATOM      6  C   UNL     1       0.712  -0.589   0.525  1.00  0.00    +0.000 A 
ATOM      7  C   UNL     1      -1.683  -0.621   0.975  1.00  0.00    +0.000 A 
ATOM      8  C   UNL     1      -2.992  -0.183   0.723  1.00  0.00    +0.000 A 
ATOM      9  C   UNL     1      -4.123  -0.743   1.544  1.00  0.00    +0.000 C 
ATOM     10  C   UNL     1      -5.483  -0.653   0.836  1.00  0.00    +0.000 C 
ATOM     11  C   UNL     1      -5.721   0.766   0.324  1.00  0.00    +0.000 C 
ATOM     12  C   UNL     1      -4.581   1.290  -0.515  1.00  0.00    +0.000 C 
ATOM     13  O   UNL     1      -4.755   2.158  -1.370  1.00  0.00    +0.000 OA
ATOM     14  C   UNL     1      -3.203   0.795  -0.256  1.00  0.00    +0.000 A 
ATOM     15  C   UNL     1      -2.111   1.302  -0.985  1.00  0.00    +0.000 A 
ATOM     16  C   UNL     1      -5.606  -1.687  -0.290  1.00  0.00    +0.000 C 
ENDROOT
BRANCH  15  17
ATOM     17  O   UNL     1      -2.287   2.263  -1.964  1.00  0.00    +0.000 OA
ATOM     18  H   UNL     1      -3.249   2.481  -2.009  1.00  0.00    +0.000 HD
ENDBRANCH  15  17
BRANCH  10  19
ATOM     19  O   UNL     1      -6.510  -0.975   1.786  1.00  0.00    +0.000 OA
ATOM     20  H   UNL     1      -6.502  -0.314   2.500  1.00  0.00    +0.000 HD
ENDBRANCH  10  19
BRANCH   3  21
ATOM     21  O   UNL     1       0.284   2.263  -2.430  1.00  0.00    +0.000 OA
ATOM     22  H   UNL     1      -0.665   2.499  -2.513  1.00  0.00    +0.000 HD
ENDBRANCH   3  21
BRANCH   1  23
ATOM     23  O   UNL     1       3.017  -0.670   0.209  1.00  0.00    +0.000 OA
BRANCH  23  24
ATOM     24  C   UNL     1       4.193  -0.206  -0.457  1.00  0.00    +0.000 C 
BRANCH  24  27
ATOM     25  C   UNL     1       6.913   0.930   0.677  1.00  0.00    +0.000 C 
ATOM     26  C   UNL     1       6.516  -0.518   0.596  1.00  0.00    +0.000 C 
ATOM     27  C   UNL     1       5.351  -0.982   0.101  1.00  0.00    +0.000 C 
ATOM     28  C   UNL     1       7.554  -1.472   1.129  1.00  0.00    +0.000 C 
ENDBRANCH  24  27
ENDBRANCH  23  24
ENDBRANCH   1  23
TORSDOF 6
