REMARK  Name = /srv/my_project/app/compsite/backup/Dave/CORINA_stuff/newPDBs/SANC00412.pdb
AUTHORGENERATED BY OPEN BABEL 2.3.2
REMARK  15 active torsions:
REMARK  status: ('A' for Active; 'I' for Inactive)
REMARK    1  A    between atoms: C_1  and  C_2
REMARK    2  A    between atoms: C_2  and  C_4
REMARK    3  A    between atoms: C_4  and  C_5
REMARK    4  A    between atoms: C_10  and  C_11
REMARK    5  A    between atoms: C_13  and  O_14
REMARK    6  A    between atoms: C_15  and  C_16
REMARK    7  A    between atoms: C_19  and  C_20
REMARK    8  A    between atoms: C_20  and  O_21
REMARK    9  A    between atoms: O_21  and  C_22
REMARK   10  A    between atoms: C_22  and  C_24
REMARK   11  A    between atoms: C_25  and  C_26
REMARK   12  A    between atoms: C_29  and  O_30
REMARK   13  A    between atoms: C_33  and  O_35
REMARK   14  A    between atoms: C_36  and  O_38
REMARK   15  A    between atoms: C_39  and  O_41
REMARK                            x       y       z     vdW  Elec       q    Type
REMARK                         _______ _______ _______ _____ _____    ______ ____
ROOT
ATOM      1  C   UNL     1      -1.654   0.120   0.310  1.00  0.00    +0.000 C 
ATOM      2  O   UNL     1      -0.558   0.621   1.093  1.00  0.00    +0.000 OA
ATOM      3  C   UNL     1       0.741   0.403   0.525  1.00  0.00    +0.000 C 
ATOM      4  C   UNL     1       0.990  -1.084   0.194  1.00  0.00    +0.000 C 
ATOM      5  C   UNL     1      -0.192  -1.703  -0.570  1.00  0.00    +0.000 C 
ATOM      6  C   UNL     1      -1.248  -0.663  -0.957  1.00  0.00    +0.000 C 
ENDROOT
BRANCH   1  16
ATOM      7  C   UNL     1      -5.677  -0.452   1.014  1.00  0.00    +0.000 A 
ATOM      8  C   UNL     1      -6.682   0.377   0.711  1.00  0.00    +0.000 A 
ATOM      9  C   UNL     1      -6.379   1.748   0.262  1.00  0.00    +0.000 A 
ATOM     10  O   UNL     1      -7.296   2.547   0.127  1.00  0.00    +0.000 OA
ATOM     11  C   UNL     1      -4.956   2.058  -0.032  1.00  0.00    +0.000 A 
ATOM     12  C   UNL     1      -4.548   3.248  -0.663  1.00  0.00    +0.000 A 
ATOM     13  C   UNL     1      -5.509   4.339  -1.049  1.00  0.00    +0.000 C 
ATOM     14  C   UNL     1      -3.187   3.413  -0.965  1.00  0.00    +0.000 A 
ATOM     15  C   UNL     1      -2.256   2.418  -0.652  1.00  0.00    +0.000 A 
ATOM     16  C   UNL     1      -2.638   1.241   0.000  1.00  0.00    +0.000 A 
ATOM     17  C   UNL     1      -4.004   1.084   0.308  1.00  0.00    +0.000 A 
ATOM     18  O   UNL     1      -4.353  -0.077   0.957  1.00  0.00    +0.000 OA
BRANCH  15  19
ATOM     19  O   UNL     1      -0.952   2.589  -1.018  1.00  0.00    +0.000 OA
ATOM     20  H   UNL     1      -0.817   3.494  -1.344  1.00  0.00    +0.000 HD
ENDBRANCH  15  19
BRANCH   7  21
ATOM     21  C   UNL     1      -5.884  -1.863   1.486  1.00  0.00    +0.000 C 
BRANCH  21  23
ATOM     22  C   UNL     1      -5.837  -4.228   0.465  1.00  0.00    +0.000 C 
ATOM     23  C   UNL     1      -5.170  -2.883   0.597  1.00  0.00    +0.000 C 
ATOM     24  O   UNL     1      -4.082  -2.666   0.055  1.00  0.00    +0.000 OA
ENDBRANCH  21  23
ENDBRANCH   7  21
ENDBRANCH   1  16
BRANCH   4  25
ATOM     25  O   UNL     1       1.191  -1.851   1.394  1.00  0.00    +0.000 OA
ATOM     26  H   UNL     1       2.115  -1.713   1.667  1.00  0.00    +0.000 HD
ENDBRANCH   4  25
BRANCH   5  27
ATOM     27  O   UNL     1       0.283  -2.347  -1.767  1.00  0.00    +0.000 OA
ATOM     28  H   UNL     1      -0.524  -2.538  -2.287  1.00  0.00    +0.000 HD
ENDBRANCH   5  27
BRANCH   6  29
ATOM     29  O   UNL     1      -2.345  -1.347  -1.590  1.00  0.00    +0.000 OA
ATOM     30  H   UNL     1      -2.876  -1.803  -0.897  1.00  0.00    +0.000 HD
ENDBRANCH   6  29
BRANCH   3  31
ATOM     31  C   UNL     1       1.769   0.978   1.508  1.00  0.00    +0.000 C 
BRANCH  31  32
ATOM     32  O   UNL     1       3.122   0.721   1.099  1.00  0.00    +0.000 OA
BRANCH  32  33
ATOM     33  C   UNL     1       3.617   1.567   0.164  1.00  0.00    +0.000 C 
ATOM     34  O   UNL     1       3.015   2.490  -0.363  1.00  0.00    +0.000 OA
BRANCH  33  35
ATOM     35  C   UNL     1       5.015   1.243  -0.188  1.00  0.00    +0.000 C 
ATOM     36  C   UNL     1       5.732   0.260   0.378  1.00  0.00    +0.000 C 
BRANCH  36  37
ATOM     37  C   UNL     1       7.125  -0.038   0.018  1.00  0.00    +0.000 A 
ATOM     38  C   UNL     1       8.017  -0.425   1.029  1.00  0.00    +0.000 A 
ATOM     39  C   UNL     1       9.345  -0.742   0.727  1.00  0.00    +0.000 A 
ATOM     40  C   UNL     1       9.778  -0.683  -0.593  1.00  0.00    +0.000 A 
ATOM     41  C   UNL     1       8.906  -0.317  -1.610  1.00  0.00    +0.000 A 
ATOM     42  C   UNL     1       7.580  -0.000  -1.307  1.00  0.00    +0.000 A 
BRANCH  40  43
ATOM     43  O   UNL     1      11.063  -0.984  -0.934  1.00  0.00    +0.000 OA
ATOM     44  H   UNL     1      11.551  -1.223  -0.129  1.00  0.00    +0.000 HD
ENDBRANCH  40  43
ENDBRANCH  36  37
ENDBRANCH  33  35
ENDBRANCH  32  33
ENDBRANCH  31  32
ENDBRANCH   3  31
TORSDOF 13
