REMARK  Name = /srv/my_project/app/compsite/backup/Dave/CORINA_stuff/newPDBs/SANC00630.pdb
AUTHORGENERATED BY OPEN BABEL 2.3.2
REMARK  3 active torsions:
REMARK  status: ('A' for Active; 'I' for Inactive)
REMARK    1  A    between atoms: C_1  and  C_2
REMARK    2  A    between atoms: C_2  and  C_4
REMARK    3  A    between atoms: C_7  and  O_10
REMARK                            x       y       z     vdW  Elec       q    Type
REMARK                         _______ _______ _______ _____ _____    ______ ____
ROOT
ATOM      1  C   UNL     1      -0.495  -0.355  -0.042  1.00  0.00    +0.000 A 
ATOM      2  C   UNL     1       0.319  -1.494   0.042  1.00  0.00    +0.000 A 
ATOM      3  C   UNL     1       1.704  -1.364   0.165  1.00  0.00    +0.000 A 
ATOM      4  C   UNL     1       2.275  -0.099   0.206  1.00  0.00    +0.000 A 
ATOM      5  C   UNL     1       1.485   1.043   0.125  1.00  0.00    +0.000 A 
ATOM      6  C   UNL     1       0.097   0.916   0.001  1.00  0.00    +0.000 A 
ENDROOT
BRANCH   1   8
ATOM      7  C   UNL     1      -2.857   0.672  -0.263  1.00  0.00    +0.000 C 
ATOM      8  C   UNL     1      -1.971  -0.543  -0.173  1.00  0.00    +0.000 C 
ATOM      9  O   UNL     1      -2.445  -1.677  -0.206  1.00  0.00    +0.000 OA
ENDBRANCH   1   8
BRANCH   4  10
ATOM     10  O   UNL     1       3.630  -0.018   0.327  1.00  0.00    +0.000 OA
ATOM     11  H   UNL     1       3.891   0.917   0.343  1.00  0.00    +0.000 HD
ENDBRANCH   4  10
TORSDOF 2
