REMARK  Name = /srv/my_project/app/compsite/backup/Dave/CORINA_stuff/newPDBs/SANC00692.pdb
AUTHORGENERATED BY OPEN BABEL 2.3.2
REMARK  35 active torsions:
REMARK  status: ('A' for Active; 'I' for Inactive)
REMARK    1  A    between atoms: C_2  and  O_3
REMARK    2  A    between atoms: O_3  and  C_4
REMARK    3  A    between atoms: C_6  and  O_8
REMARK    4  A    between atoms: C_11  and  O_13
REMARK    5  A    between atoms: O_13  and  C_14
REMARK    6  A    between atoms: C_25  and  O_27
REMARK    7  A    between atoms: O_27  and  C_28
REMARK    8  A    between atoms: C_31  and  C_33
REMARK    9  A    between atoms: C_33  and  O_34
REMARK   10  A    between atoms: O_34  and  C_35
REMARK   11  A    between atoms: C_38  and  C_40
REMARK   12  A    between atoms: C_40  and  O_41
REMARK   13  A    between atoms: C_42  and  O_44
REMARK   14  A    between atoms: C_45  and  O_47
REMARK   15  A    between atoms: C_48  and  O_50
REMARK   16  A    between atoms: C_51  and  O_53
REMARK   17  A    between atoms: C_54  and  O_56
REMARK   18  A    between atoms: C_57  and  O_59
REMARK   19  A    between atoms: C_62  and  C_63
REMARK   20  A    between atoms: C_68  and  C_69
REMARK   21  A    between atoms: C_70  and  O_71
REMARK   22  A    between atoms: C_70  and  C_72
REMARK   23  A    between atoms: C_72  and  C_74
REMARK   24  A    between atoms: C_72  and  C_75
REMARK   25  A    between atoms: C_75  and  C_77
REMARK   26  A    between atoms: C_77  and  C_78
REMARK   27  A    between atoms: C_78  and  C_79
REMARK   28  A    between atoms: C_79  and  C_80
REMARK   29  A    between atoms: C_79  and  C_81
REMARK   30  A    between atoms: C_82  and  O_84
REMARK   31  A    between atoms: O_84  and  C_85
REMARK   32  A    between atoms: C_85  and  C_86
REMARK   33  A    between atoms: C_90  and  O_92
REMARK   34  A    between atoms: C_93  and  O_95
REMARK   35  A    between atoms: C_96  and  O_98
REMARK                            x       y       z     vdW  Elec       q    Type
REMARK                         _______ _______ _______ _____ _____    ______ ____
ROOT
ATOM      1  C   UNL     1      -4.381   1.953  -0.810  1.00  0.00    +0.000 C 
ATOM      2  C   UNL     1      -3.052   2.419  -0.173  1.00  0.00    +0.000 C 
ATOM      3  C   UNL     1      -1.955   1.735  -0.979  1.00  0.00    +0.000 C 
ATOM      4  C   UNL     1      -0.574   1.585  -0.325  1.00  0.00    +0.000 C 
ATOM      5  C   UNL     1      -0.036   2.940   0.168  1.00  0.00    +0.000 C 
ATOM      6  C   UNL     1       1.457   3.031   0.254  1.00  0.00    +0.000 C 
ATOM      7  C   UNL     1       2.316   2.075  -0.149  1.00  0.00    +0.000 C 
ATOM      8  C   UNL     1       3.796   2.398  -0.211  1.00  0.00    +0.000 C 
ATOM      9  C   UNL     1       4.758   1.207  -0.306  1.00  0.00    +0.000 C 
ATOM     10  C   UNL     1       4.284   0.110  -1.270  1.00  0.00    +0.000 C 
ATOM     11  C   UNL     1       2.849   0.281  -1.786  1.00  0.00    +0.000 C 
ATOM     12  C   UNL     1       1.838   0.731  -0.703  1.00  0.00    +0.000 C 
ATOM     13  C   UNL     1       1.796  -0.313   0.440  1.00  0.00    +0.000 C 
ATOM     14  C   UNL     1       0.407   0.925  -1.341  1.00  0.00    +0.000 C 
ATOM     15  C   UNL     1      -0.190  -0.355  -1.980  1.00  0.00    +0.000 C 
ATOM     16  C   UNL     1      -1.630  -0.181  -2.500  1.00  0.00    +0.000 C 
ATOM     17  C   UNL     1      -2.583   0.388  -1.426  1.00  0.00    +0.000 C 
ATOM     18  C   UNL     1      -2.720  -0.630  -0.263  1.00  0.00    +0.000 C 
ATOM     19  C   UNL     1      -3.998   0.887  -1.917  1.00  0.00    +0.000 C 
ENDROOT
BRANCH  19  20
ATOM     20  C   UNL     1      -5.105  -0.186  -2.139  1.00  0.00    +0.000 C 
ATOM     21  C   UNL     1      -4.720  -1.322  -3.090  1.00  0.00    +0.000 C 
BRANCH  20  22
ATOM     22  C   UNL     1      -6.415   0.479  -2.612  1.00  0.00    +0.000 C 
ATOM     23  O   UNL     1      -7.228   0.914  -1.790  1.00  0.00    +0.000 OA
BRANCH  22  24
ATOM     24  C   UNL     1      -6.682   0.597  -4.113  1.00  0.00    +0.000 C 
BRANCH  24  25
ATOM     25  C   UNL     1      -7.915   1.433  -4.480  1.00  0.00    +0.000 C 
BRANCH  25  26
ATOM     26  C   UNL     1      -7.627   2.926  -4.733  1.00  0.00    +0.000 C 
ATOM     27  C   UNL     1      -8.901   3.622  -5.221  1.00  0.00    +0.000 C 
ATOM     28  C   UNL     1      -7.088   3.650  -3.502  1.00  0.00    +0.000 C 
ENDBRANCH  25  26
ENDBRANCH  24  25
ENDBRANCH  22  24
ENDBRANCH  20  22
ENDBRANCH  19  20
BRANCH  19  29
ATOM     29  O   UNL     1      -3.824   1.557  -3.186  1.00  0.00    +0.000 OA
ATOM     30  H   UNL     1      -3.445   2.440  -3.036  1.00  0.00    +0.000 HD
ENDBRANCH  19  29
BRANCH   9  31
ATOM     31  O   UNL     1       4.932   0.666   1.013  1.00  0.00    +0.000 OA
BRANCH  31  32
ATOM     32  C   UNL     1       6.276   0.253   1.286  1.00  0.00    +0.000 C 
ATOM     33  O   UNL     1       6.704  -0.763   0.387  1.00  0.00    +0.000 OA
ATOM     34  C   UNL     1       8.061  -1.183   0.621  1.00  0.00    +0.000 C 
ATOM     35  C   UNL     1       8.223  -1.750   2.045  1.00  0.00    +0.000 C 
ATOM     36  C   UNL     1       7.688  -0.751   3.078  1.00  0.00    +0.000 C 
ATOM     37  C   UNL     1       6.280  -0.289   2.723  1.00  0.00    +0.000 C 
BRANCH  37  38
ATOM     38  O   UNL     1       5.867   0.712   3.667  1.00  0.00    +0.000 OA
ATOM     39  H   UNL     1       5.022   1.059   3.313  1.00  0.00    +0.000 HD
ENDBRANCH  37  38
BRANCH  36  40
ATOM     40  O   UNL     1       7.701  -1.366   4.377  1.00  0.00    +0.000 OA
ATOM     41  H   UNL     1       7.187  -0.759   4.949  1.00  0.00    +0.000 HD
ENDBRANCH  36  40
BRANCH  35  42
ATOM     42  O   UNL     1       9.592  -2.012   2.369  1.00  0.00    +0.000 OA
ATOM     43  H   UNL     1       9.582  -2.264   3.315  1.00  0.00    +0.000 HD
ENDBRANCH  35  42
BRANCH  34  44
ATOM     44  C   UNL     1       8.393  -2.214  -0.473  1.00  0.00    +0.000 C 
BRANCH  44  45
ATOM     45  O   UNL     1       9.715  -2.743  -0.437  1.00  0.00    +0.000 OA
BRANCH  45  46
ATOM     46  C   UNL     1      10.659  -2.050  -1.255  1.00  0.00    +0.000 C 
ATOM     47  O   UNL     1      11.666  -2.989  -1.662  1.00  0.00    +0.000 OA
ATOM     48  C   UNL     1      12.735  -3.213  -0.728  1.00  0.00    +0.000 C 
ATOM     49  C   UNL     1      13.502  -1.911  -0.422  1.00  0.00    +0.000 C 
ATOM     50  C   UNL     1      12.732  -0.684  -0.918  1.00  0.00    +0.000 C 
ATOM     51  C   UNL     1      11.255  -0.805  -0.562  1.00  0.00    +0.000 C 
BRANCH  51  52
ATOM     52  O   UNL     1      10.574   0.395  -0.972  1.00  0.00    +0.000 OA
ATOM     53  H   UNL     1      11.185   1.119  -0.721  1.00  0.00    +0.000 HD
ENDBRANCH  51  52
BRANCH  50  54
ATOM     54  O   UNL     1      13.268   0.509  -0.319  1.00  0.00    +0.000 OA
ATOM     55  H   UNL     1      14.224   0.485  -0.525  1.00  0.00    +0.000 HD
ENDBRANCH  50  54
BRANCH  49  56
ATOM     56  O   UNL     1      14.784  -1.878  -1.073  1.00  0.00    +0.000 OA
ATOM     57  H   UNL     1      15.264  -2.692  -0.834  1.00  0.00    +0.000 HD
ENDBRANCH  49  56
BRANCH  48  58
ATOM     58  C   UNL     1      12.250  -3.902   0.558  1.00  0.00    +0.000 C 
BRANCH  58  59
ATOM     59  O   UNL     1      11.484  -5.059   0.237  1.00  0.00    +0.000 OA
ATOM     60  H   UNL     1      10.723  -4.719  -0.278  1.00  0.00    +0.000 HD
ENDBRANCH  58  59
ENDBRANCH  48  58
ENDBRANCH  45  46
ENDBRANCH  44  45
ENDBRANCH  34  44
ENDBRANCH  31  32
ENDBRANCH   9  31
BRANCH   1  61
ATOM     61  O   UNL     1      -5.173   1.363   0.216  1.00  0.00    +0.000 OA
BRANCH  61  66
ATOM     62  C   UNL     1      -6.539   0.741   2.762  1.00  0.00    +0.000 C 
ATOM     63  C   UNL     1      -5.485   1.677   3.401  1.00  0.00    +0.000 C 
ATOM     64  C   UNL     1      -5.633   3.121   2.930  1.00  0.00    +0.000 C 
ATOM     65  O   UNL     1      -5.574   3.279   1.512  1.00  0.00    +0.000 OA
ATOM     66  C   UNL     1      -6.175   2.234   0.745  1.00  0.00    +0.000 C 
ATOM     67  C   UNL     1      -7.197   1.378   1.520  1.00  0.00    +0.000 C 
BRANCH  63  68
ATOM     68  O   UNL     1      -4.147   1.230   3.127  1.00  0.00    +0.000 OA
ATOM     69  H   UNL     1      -4.249   0.523   2.458  1.00  0.00    +0.000 HD
ENDBRANCH  63  68
BRANCH  67  70
ATOM     70  O   UNL     1      -8.301   2.233   1.908  1.00  0.00    +0.000 OA
BRANCH  70  71
ATOM     71  C   UNL     1      -9.488   1.606   2.119  1.00  0.00    +0.000 C 
ATOM     72  C   UNL     1     -10.551   2.610   2.442  1.00  0.00    +0.000 C 
ATOM     73  O   UNL     1      -9.665   0.397   2.089  1.00  0.00    +0.000 OA
ENDBRANCH  70  71
ENDBRANCH  67  70
BRANCH  62  74
ATOM     74  O   UNL     1      -5.865  -0.494   2.442  1.00  0.00    +0.000 OA
BRANCH  74  75
ATOM     75  C   UNL     1      -6.734  -1.631   2.425  1.00  0.00    +0.000 C 
ATOM     76  O   UNL     1      -7.136  -1.960   3.762  1.00  0.00    +0.000 OA
ATOM     77  C   UNL     1      -6.125  -2.653   4.496  1.00  0.00    +0.000 C 
ATOM     78  C   UNL     1      -5.839  -4.034   3.889  1.00  0.00    +0.000 C 
ATOM     79  C   UNL     1      -6.317  -4.107   2.436  1.00  0.00    +0.000 C 
ATOM     80  C   UNL     1      -5.988  -2.797   1.728  1.00  0.00    +0.000 C 
BRANCH  80  81
ATOM     81  O   UNL     1      -6.341  -2.901   0.338  1.00  0.00    +0.000 OA
ATOM     82  H   UNL     1      -5.998  -3.772   0.057  1.00  0.00    +0.000 HD
ENDBRANCH  80  81
BRANCH  79  83
ATOM     83  O   UNL     1      -5.668  -5.195   1.754  1.00  0.00    +0.000 OA
ATOM     84  H   UNL     1      -6.144  -6.004   2.017  1.00  0.00    +0.000 HD
ENDBRANCH  79  83
BRANCH  78  85
ATOM     85  O   UNL     1      -6.500  -5.060   4.642  1.00  0.00    +0.000 OA
ATOM     86  H   UNL     1      -6.042  -5.897   4.452  1.00  0.00    +0.000 HD
ENDBRANCH  78  85
ENDBRANCH  74  75
ENDBRANCH  62  74
ENDBRANCH  61  66
ENDBRANCH   1  61
TORSDOF 29
