REMARK  Name = /srv/my_project/app/compsite/backup/Dave/CORINA_stuff/newPDBs/SANC00566.pdb
AUTHORGENERATED BY OPEN BABEL 2.3.2
REMARK  12 active torsions:
REMARK  status: ('A' for Active; 'I' for Inactive)
REMARK    1  A    between atoms: C_1  and  O_2
REMARK    2  A    between atoms: O_2  and  C_3
REMARK    3  A    between atoms: C_6  and  C_7
REMARK    4  A    between atoms: C_7  and  C_8
REMARK    5  A    between atoms: C_8  and  O_9
REMARK    6  A    between atoms: C_13  and  O_14
REMARK    7  A    between atoms: O_14  and  C_15
REMARK    8  A    between atoms: C_16  and  O_17
REMARK    9  A    between atoms: O_17  and  C_18
REMARK   10  A    between atoms: C_20  and  O_21
REMARK   11  A    between atoms: C_26  and  O_27
REMARK   12  A    between atoms: O_27  and  C_28
REMARK                            x       y       z     vdW  Elec       q    Type
REMARK                         _______ _______ _______ _____ _____    ______ ____
ROOT
ATOM      1  C   UNL     1      -0.029  -0.208   1.222  1.00  0.00    +0.000 C 
ATOM      2  C   UNL     1      -0.099   0.118  -0.272  1.00  0.00    +0.000 C 
ATOM      3  O   UNL     1      -1.246   0.934  -0.558  1.00  0.00    +0.000 OA
ATOM      4  C   UNL     1      -2.433   0.342  -0.206  1.00  0.00    +0.000 A 
ATOM      5  C   UNL     1      -3.591   0.742  -0.889  1.00  0.00    +0.000 A 
ATOM      6  C   UNL     1      -4.841   0.169  -0.594  1.00  0.00    +0.000 A 
ATOM      7  C   UNL     1      -4.925  -0.777   0.430  1.00  0.00    +0.000 A 
ATOM      8  C   UNL     1      -3.778  -1.150   1.134  1.00  0.00    +0.000 A 
ATOM      9  C   UNL     1      -2.533  -0.593   0.822  1.00  0.00    +0.000 A 
ATOM     10  C   UNL     1      -1.316  -0.959   1.574  1.00  0.00    +0.000 C 
ATOM     11  O   UNL     1      -1.399  -1.817   2.452  1.00  0.00    +0.000 OA
ENDROOT
BRANCH   1  12
ATOM     12  O   UNL     1       0.004   1.001   1.995  1.00  0.00    +0.000 OA
ATOM     13  H   UNL     1      -0.575   1.650   1.553  1.00  0.00    +0.000 HD
ENDBRANCH   1  12
BRANCH   5  14
ATOM     14  O   UNL     1      -3.467   1.641  -1.923  1.00  0.00    +0.000 OA
ATOM     15  C   UNL     1      -3.769   2.959  -1.468  1.00  0.00    +0.000 C 
ENDBRANCH   5  14
BRANCH   6  16
ATOM     16  O   UNL     1      -5.900   0.601  -1.349  1.00  0.00    +0.000 OA
ATOM     17  C   UNL     1      -7.152  -0.042  -1.148  1.00  0.00    +0.000 C 
ENDBRANCH   6  16
BRANCH   8  18
ATOM     18  O   UNL     1      -3.954  -2.075   2.129  1.00  0.00    +0.000 OA
ATOM     19  H   UNL     1      -3.082  -2.245   2.553  1.00  0.00    +0.000 HD
ENDBRANCH   8  18
BRANCH   1  20
ATOM     20  C   UNL     1       1.179  -1.097   1.590  1.00  0.00    +0.000 C 
BRANCH  20  24
ATOM     21  C   UNL     1       4.992   0.329   0.108  1.00  0.00    +0.000 A 
ATOM     22  C   UNL     1       4.348   0.987   1.160  1.00  0.00    +0.000 A 
ATOM     23  C   UNL     1       3.122   0.520   1.642  1.00  0.00    +0.000 A 
ATOM     24  C   UNL     1       2.518  -0.607   1.078  1.00  0.00    +0.000 A 
ATOM     25  C   UNL     1       3.167  -1.273   0.026  1.00  0.00    +0.000 A 
ATOM     26  C   UNL     1       4.398  -0.815  -0.462  1.00  0.00    +0.000 A 
BRANCH  21  28
ATOM     27  C   UNL     1       6.830   1.855   0.133  1.00  0.00    +0.000 C 
ATOM     28  O   UNL     1       6.193   0.718  -0.431  1.00  0.00    +0.000 OA
ENDBRANCH  21  28
BRANCH  26  29
ATOM     29  O   UNL     1       5.091  -1.404  -1.491  1.00  0.00    +0.000 OA
ATOM     30  C   UNL     1       4.592  -2.628  -2.009  1.00  0.00    +0.000 C 
ENDBRANCH  26  29
ENDBRANCH  20  24
ENDBRANCH   1  20
TORSDOF 8
