REMARK  Name = /srv/my_project/app/compsite/backup/Dave/CORINA_stuff/newPDBs/SANC00592.pdb
AUTHORGENERATED BY OPEN BABEL 2.3.2
REMARK  13 active torsions:
REMARK  status: ('A' for Active; 'I' for Inactive)
REMARK    1  A    between atoms: C_5  and  C_7
REMARK    2  A    between atoms: C_8  and  C_9
REMARK    3  A    between atoms: C_8  and  C_10
REMARK    4  A    between atoms: C_10  and  C_11
REMARK    5  A    between atoms: C_11  and  C_12
REMARK    6  A    between atoms: C_12  and  C_13
REMARK    7  A    between atoms: C_14  and  C_16
REMARK    8  A    between atoms: C_22  and  C_23
REMARK    9  A    between atoms: C_22  and  C_24
REMARK   10  A    between atoms: C_25  and  O_26
REMARK   11  A    between atoms: C_34  and  O_36
REMARK   12  A    between atoms: C_37  and  C_38
REMARK   13  A    between atoms: C_37  and  C_39
REMARK                            x       y       z     vdW  Elec       q    Type
REMARK                         _______ _______ _______ _____ _____    ______ ____
ROOT
ATOM      1  C   UNL     1      -0.927  -1.684   0.106  1.00  0.00    +0.000 C 
ENDROOT
BRANCH   1   2
ATOM      2  C   UNL     1      -2.338  -1.464   0.784  1.00  0.00    +0.000 C 
ATOM      3  C   UNL     1      -2.212  -1.712   2.307  1.00  0.00    +0.000 C 
ATOM      4  C   UNL     1      -3.298  -2.559   0.135  1.00  0.00    +0.000 C 
ATOM      5  C   UNL     1      -2.899  -4.024   0.392  1.00  0.00    +0.000 C 
ATOM      6  C   UNL     1      -4.770  -2.401   0.544  1.00  0.00    +0.000 C 
ATOM      7  C   UNL     1      -5.298  -1.039   0.145  1.00  0.00    +0.000 C 
ATOM      8  C   UNL     1      -4.477   0.072   0.783  1.00  0.00    +0.000 C 
ATOM      9  O   UNL     1      -5.036   1.358   0.440  1.00  0.00    +0.000 OA
ATOM     10  C   UNL     1      -4.518   1.985  -0.759  1.00  0.00    +0.000 C 
ATOM     11  C   UNL     1      -5.285   1.481  -1.995  1.00  0.00    +0.000 C 
ATOM     12  C   UNL     1      -4.852   3.480  -0.613  1.00  0.00    +0.000 C 
ATOM     13  C   UNL     1      -2.978   1.749  -0.916  1.00  0.00    +0.000 C 
ATOM     14  C   UNL     1      -2.141   2.250   0.253  1.00  0.00    +0.000 C 
ATOM     15  C   UNL     1      -2.285   1.155   1.290  1.00  0.00    +0.000 C 
ATOM     16  C   UNL     1      -2.934  -0.020   0.516  1.00  0.00    +0.000 C 
ATOM     17  O   UNL     1      -2.733   0.331  -0.880  1.00  0.00    +0.000 OA
BRANCH  13  18
ATOM     18  O   UNL     1      -2.460   2.269  -2.123  1.00  0.00    +0.000 OA
ATOM     19  H   UNL     1      -2.713   1.614  -2.796  1.00  0.00    +0.000 HD
ENDBRANCH  13  18
ENDBRANCH   1   2
BRANCH   1  20
ATOM     20  C   UNL     1       0.217  -0.713   0.441  1.00  0.00    +0.000 C 
BRANCH  20  26
ATOM     21  C   UNL     1       3.993  -0.035  -0.656  1.00  0.00    +0.000 C 
ATOM     22  C   UNL     1       4.167  -1.279  -1.534  1.00  0.00    +0.000 C 
ATOM     23  C   UNL     1       2.929  -1.751  -2.280  1.00  0.00    +0.000 C 
ATOM     24  C   UNL     1       1.584  -1.320  -1.669  1.00  0.00    +0.000 C 
ATOM     25  C   UNL     1       1.044  -0.106  -2.452  1.00  0.00    +0.000 C 
ATOM     26  C   UNL     1       1.648  -1.089  -0.117  1.00  0.00    +0.000 C 
ATOM     27  C   UNL     1       2.086  -2.379   0.624  1.00  0.00    +0.000 C 
ATOM     28  C   UNL     1       2.704   0.018   0.157  1.00  0.00    +0.000 C 
ATOM     29  C   UNL     1       2.476   1.068   0.977  1.00  0.00    +0.000 C 
ATOM     30  C   UNL     1       3.392   2.237   1.194  1.00  0.00    +0.000 C 
ATOM     31  C   UNL     1       4.789   1.877   1.706  1.00  0.00    +0.000 C 
ATOM     32  C   UNL     1       5.697   1.169   0.664  1.00  0.00    +0.000 C 
ATOM     33  C   UNL     1       6.109   2.083  -0.504  1.00  0.00    +0.000 C 
ATOM     34  C   UNL     1       7.002   0.733   1.365  1.00  0.00    +0.000 C 
ATOM     35  O   UNL     1       5.129  -0.066   0.212  1.00  0.00    +0.000 OA
BRANCH  31  36
ATOM     36  O   UNL     1       5.393   3.091   2.179  1.00  0.00    +0.000 OA
ATOM     37  H   UNL     1       6.098   2.841   2.800  1.00  0.00    +0.000 HD
ENDBRANCH  31  36
ENDBRANCH  20  26
ENDBRANCH   1  20
TORSDOF 5
