REMARK  Name = /srv/my_project/app/compsite/backup/Dave/CORINA_stuff/newPDBs/SANC00629.pdb
AUTHORGENERATED BY OPEN BABEL 2.3.2
REMARK  4 active torsions:
REMARK  status: ('A' for Active; 'I' for Inactive)
REMARK    1  A    between atoms: C_1  and  O_2
REMARK    2  A    between atoms: O_2  and  C_3
REMARK    3  A    between atoms: C_15  and  O_16
REMARK    4  A    between atoms: O_16  and  C_17
REMARK                            x       y       z     vdW  Elec       q    Type
REMARK                         _______ _______ _______ _____ _____    ______ ____
ROOT
ATOM      1  C   UNL     1       1.426   0.804  -0.607  1.00  0.00    +0.000 A 
ATOM      2  C   UNL     1       2.249  -0.320  -0.740  1.00  0.00    +0.000 A 
ATOM      3  C   UNL     1       3.586  -0.594  -1.130  1.00  0.00    +0.000 A 
ATOM      4  C   UNL     1       3.746  -1.955  -1.019  1.00  0.00    +0.000 A 
ATOM      5  O   UNL     1       2.595  -2.537  -0.591  1.00  0.00    +0.000 OA
ATOM      6  C   UNL     1       1.677  -1.542  -0.428  1.00  0.00    +0.000 A 
ATOM      7  N   UNL     1       0.422  -1.770  -0.028  1.00  0.00    +0.000 NA
ATOM      8  C   UNL     1      -0.391  -0.703   0.052  1.00  0.00    +0.000 A 
ATOM      9  C   UNL     1       0.076   0.622  -0.235  1.00  0.00    +0.000 A 
ATOM     10  C   UNL     1      -0.790   1.731  -0.142  1.00  0.00    +0.000 A 
ATOM     11  C   UNL     1      -2.088   1.523   0.246  1.00  0.00    +0.000 A 
ATOM     12  C   UNL     1      -2.550   0.268   0.532  1.00  0.00    +0.000 A 
ATOM     13  C   UNL     1      -1.741  -0.859   0.437  1.00  0.00    +0.000 A 
ATOM     14  O   UNL     1      -3.867   0.287   0.897  1.00  0.00    +0.000 OA
ATOM     15  C   UNL     1      -4.166   1.691   0.804  1.00  0.00    +0.000 C 
ATOM     16  O   UNL     1      -3.036   2.485   0.392  1.00  0.00    +0.000 OA
ENDROOT
BRANCH   1  18
ATOM     17  C   UNL     1       2.659   2.585   0.177  1.00  0.00    +0.000 C 
ATOM     18  O   UNL     1       1.898   2.064  -0.915  1.00  0.00    +0.000 OA
ENDBRANCH   1  18
BRANCH  13  19
ATOM     19  O   UNL     1      -2.394  -2.023   0.767  1.00  0.00    +0.000 OA
ATOM     20  C   UNL     1      -1.807  -3.262   0.397  1.00  0.00    +0.000 C 
ENDBRANCH  13  19
TORSDOF 2
