REMARK  Name = /srv/my_project/app/compsite/backup/Dave/CORINA_stuff/newPDBs/SANC00313.pdb
AUTHORGENERATED BY OPEN BABEL 2.3.2
REMARK  5 active torsions:
REMARK  status: ('A' for Active; 'I' for Inactive)
REMARK    1  A    between atoms: C_4  and  C_5
REMARK    2  A    between atoms: C_8  and  O_9
REMARK    3  A    between atoms: C_12  and  C_13
REMARK    4  A    between atoms: C_13  and  C_14
REMARK    5  A    between atoms: C_17  and  O_18
REMARK                            x       y       z     vdW  Elec       q    Type
REMARK                         _______ _______ _______ _____ _____    ______ ____
ROOT
ATOM      1  O   UNL     1       0.080   2.662   4.048  1.00  0.00    +0.000 OA
ATOM      2  C   UNL     1       0.226   1.816   3.173  1.00  0.00    +0.000 C 
ATOM      3  C   UNL     1       1.395   1.775   2.222  1.00  0.00    +0.000 C 
ATOM      4  C   UNL     1       1.050   0.559   1.449  1.00  0.00    +0.000 C 
ATOM      5  C   UNL     1      -0.115   0.082   1.885  1.00  0.00    +0.000 C 
ATOM      6  O   UNL     1      -0.666   0.795   2.955  1.00  0.00    +0.000 OA
ENDROOT
BRANCH   4   7
ATOM      7  C   UNL     1       1.880   0.084   0.347  1.00  0.00    +0.000 A 
ATOM      8  C   UNL     1       2.398  -1.218   0.349  1.00  0.00    +0.000 A 
ATOM      9  C   UNL     1       3.191  -1.666  -0.709  1.00  0.00    +0.000 A 
ATOM     10  C   UNL     1       3.473  -0.813  -1.768  1.00  0.00    +0.000 A 
ATOM     11  C   UNL     1       2.975   0.485  -1.788  1.00  0.00    +0.000 A 
ATOM     12  C   UNL     1       2.181   0.932  -0.728  1.00  0.00    +0.000 A 
BRANCH  10  13
ATOM     13  O   UNL     1       4.250  -1.292  -2.779  1.00  0.00    +0.000 OA
ATOM     14  H   UNL     1       4.382  -0.587  -3.434  1.00  0.00    +0.000 HD
ENDBRANCH  10  13
ENDBRANCH   4   7
BRANCH   5  15
ATOM     15  C   UNL     1      -0.916  -1.086   1.394  1.00  0.00    +0.000 C 
BRANCH  15  16
ATOM     16  C   UNL     1      -1.963  -0.683   0.381  1.00  0.00    +0.000 A 
ATOM     17  C   UNL     1      -3.215  -0.210   0.799  1.00  0.00    +0.000 A 
ATOM     18  C   UNL     1      -4.172   0.180  -0.139  1.00  0.00    +0.000 A 
ATOM     19  C   UNL     1      -3.879   0.102  -1.495  1.00  0.00    +0.000 A 
ATOM     20  C   UNL     1      -2.641  -0.357  -1.931  1.00  0.00    +0.000 A 
ATOM     21  C   UNL     1      -1.683  -0.746  -0.993  1.00  0.00    +0.000 A 
BRANCH  19  22
ATOM     22  O   UNL     1      -4.843   0.492  -2.377  1.00  0.00    +0.000 OA
ATOM     23  H   UNL     1      -4.504   0.371  -3.278  1.00  0.00    +0.000 HD
ENDBRANCH  19  22
ENDBRANCH  15  16
ENDBRANCH   5  15
TORSDOF 5
