REMARK  Name = /srv/my_project/app/compsite/backup/Dave/CORINA_stuff/newPDBs/SANC00191.pdb
AUTHORGENERATED BY OPEN BABEL 2.3.2
REMARK  4 active torsions:
REMARK  status: ('A' for Active; 'I' for Inactive)
REMARK    1  A    between atoms: C_13  and  C_15
REMARK    2  A    between atoms: C_16  and  C_17
REMARK    3  A    between atoms: C_18  and  C_19
REMARK    4  A    between atoms: C_18  and  C_20
REMARK                            x       y       z     vdW  Elec       q    Type
REMARK                         _______ _______ _______ _____ _____    ______ ____
ROOT
ATOM      1  O   UNL     1      -0.262   3.990  -0.090  1.00  0.00    +0.000 OA
ATOM      2  C   UNL     1      -0.195   2.756  -0.116  1.00  0.00    +0.000 C 
ATOM      3  C   UNL     1       1.128   2.090  -0.452  1.00  0.00    +0.000 C 
ATOM      4  C   UNL     1       1.525   1.004   0.503  1.00  0.00    +0.000 C 
ATOM      5  C   UNL     1       0.738  -0.283   0.514  1.00  0.00    +0.000 C 
ATOM      6  C   UNL     1      -0.445  -0.356  -0.412  1.00  0.00    +0.000 C 
ATOM      7  C   UNL     1      -1.547   0.602   0.030  1.00  0.00    +0.000 C 
ATOM      8  C   UNL     1      -2.772  -0.207   0.405  1.00  0.00    +0.000 C 
ATOM      9  C   UNL     1      -2.231  -1.615   0.618  1.00  0.00    +0.000 C 
ATOM     10  C   UNL     1      -1.145  -1.731  -0.444  1.00  0.00    +0.000 C 
ATOM     11  C   UNL     1      -0.251  -2.948  -0.260  1.00  0.00    +0.000 C 
ATOM     12  C   UNL     1      -1.450   1.946   0.153  1.00  0.00    +0.000 C 
ATOM     13  C   UNL     1      -2.609   2.816   0.579  1.00  0.00    +0.000 C 
ATOM     14  C   UNL     1       2.202  -0.295   0.083  1.00  0.00    +0.000 C 
ATOM     15  C   UNL     1       2.590  -0.537  -1.354  1.00  0.00    +0.000 C 
ATOM     16  C   UNL     1       3.191  -0.893   1.058  1.00  0.00    +0.000 C 
ENDROOT
TORSDOF 0
