REMARK  Name = SANCDB_00988_minRM1.pdb
AUTHORGENERATED BY OPEN BABEL 2.3.2
REMARK  7 active torsions:
REMARK  status: ('A' for Active; 'I' for Inactive)
REMARK    1  A    between atoms: C_1  and  N_2
REMARK    2  A    between atoms: C_8  and  O_10
REMARK    3  A    between atoms: O_10  and  C_11
REMARK    4  A    between atoms: C_11  and  C_13
REMARK    5  A    between atoms: C_13  and  C_14
REMARK    6  A    between atoms: C_13  and  C_16
REMARK    7  A    between atoms: C_14  and  O_15
REMARK                            x       y       z     vdW  Elec       q    Type
REMARK                         _______ _______ _______ _____ _____    ______ ____
ROOT
ATOM      1  C   UNL     1       0.814  -1.731   0.060  1.00  0.00    +0.000 C 
ATOM      2  O   UNL     1       0.136  -2.722  -0.181  1.00  0.00    +0.000 OA
ENDROOT
BRANCH   1   3
ATOM      3  O   UNL     1       0.320  -0.459   0.106  1.00  0.00    +0.000 OA
BRANCH   3  11
ATOM      4  C   UNL     1      -4.987   0.899  -0.656  1.00  0.00    +0.000 C 
ATOM      5  N   UNL     1      -3.586   0.547  -0.434  1.00  0.00    +0.000 NA
ATOM      6  C   UNL     1      -3.324   0.079   0.940  1.00  0.00    +0.000 C 
ATOM      7  C   UNL     1      -3.246   1.360   1.778  1.00  0.00    +0.000 C 
ATOM      8  C   UNL     1      -2.819   2.439   0.791  1.00  0.00    +0.000 C 
ATOM      9  C   UNL     1      -2.679   1.703  -0.546  1.00  0.00    +0.000 C 
ATOM     10  C   UNL     1      -1.247   1.165  -0.728  1.00  0.00    +0.000 C 
ATOM     11  C   UNL     1      -1.069  -0.283  -0.243  1.00  0.00    +0.000 C 
ATOM     12  C   UNL     1      -1.974  -0.661   0.942  1.00  0.00    +0.000 C 
ENDBRANCH   3  11
ENDBRANCH   1   3
BRANCH   1  13
ATOM     13  C   UNL     1       2.285  -1.756   0.462  1.00  0.00    +0.000 C 
BRANCH  13  14
ATOM     14  C   UNL     1       3.122  -0.585  -0.043  1.00  0.00    +0.000 A 
ATOM     15  C   UNL     1       4.034   0.043   0.820  1.00  0.00    +0.000 A 
ATOM     16  C   UNL     1       4.829   1.098   0.369  1.00  0.00    +0.000 A 
ATOM     17  C   UNL     1       4.726   1.537  -0.949  1.00  0.00    +0.000 A 
ATOM     18  C   UNL     1       3.830   0.920  -1.819  1.00  0.00    +0.000 A 
ATOM     19  C   UNL     1       3.035  -0.136  -1.371  1.00  0.00    +0.000 A 
ENDBRANCH  13  14
BRANCH  13  20
ATOM     20  C   UNL     1       2.941  -3.104   0.123  1.00  0.00    +0.000 C 
BRANCH  20  21
ATOM     21  O   UNL     1       3.204  -3.277  -1.268  1.00  0.00    +0.000 OA
ATOM     22  H   UNL     1       3.936  -2.679  -1.502  1.00  0.00    +0.000 HD
ENDBRANCH  20  21
ENDBRANCH  13  20
ENDBRANCH   1  13
TORSDOF 6
