REMARK  Name = SANCDB_01103_minRM1.pdb
AUTHORGENERATED BY OPEN BABEL 2.3.2
REMARK  3 active torsions:
REMARK  status: ('A' for Active; 'I' for Inactive)
REMARK    1  A    between atoms: C_1  and  O_2
REMARK    2  A    between atoms: O_2  and  C_3
REMARK    3  A    between atoms: C_4  and  O_20
REMARK                            x       y       z     vdW  Elec       q    Type
REMARK                         _______ _______ _______ _____ _____    ______ ____
ROOT
ATOM      1  C   UNL     1      -1.309  -1.440  -0.262  1.00  0.00    +0.000 A 
ATOM      2  C   UNL     1      -0.752  -2.725  -0.237  1.00  0.00    +0.000 A 
ATOM      3  C   UNL     1       0.615  -2.917  -0.143  1.00  0.00    +0.000 A 
ATOM      4  C   UNL     1       1.459  -1.806  -0.082  1.00  0.00    +0.000 A 
ATOM      5  C   UNL     1       2.943  -2.010   0.096  1.00  0.00    +0.000 C 
ATOM      6  C   UNL     1       3.750  -0.729  -0.133  1.00  0.00    +0.000 C 
ATOM      7  N   UNL     1       3.139   0.421   0.542  1.00  0.00    +0.000 NA
ATOM      8  C   UNL     1       1.830   0.713  -0.079  1.00  0.00    +0.000 C 
ATOM      9  C   UNL     1       0.909  -0.502  -0.131  1.00  0.00    +0.000 A 
ATOM     10  C   UNL     1      -0.491  -0.293  -0.278  1.00  0.00    +0.000 A 
ATOM     11  C   UNL     1      -0.989   1.105  -0.411  1.00  0.00    +0.000 A 
ATOM     12  C   UNL     1      -2.197   1.440  -1.046  1.00  0.00    +0.000 A 
ATOM     13  C   UNL     1      -2.638   2.765  -1.127  1.00  0.00    +0.000 A 
ATOM     14  C   UNL     1      -1.872   3.791  -0.586  1.00  0.00    +0.000 A 
ATOM     15  C   UNL     1      -0.652   3.497   0.014  1.00  0.00    +0.000 A 
ATOM     16  C   UNL     1      -0.200   2.170   0.080  1.00  0.00    +0.000 A 
ATOM     17  C   UNL     1       1.149   1.862   0.689  1.00  0.00    +0.000 C 
ATOM     18  H   UNL     1       2.982   0.184   1.522  1.00  0.00    +0.000 HD
ENDROOT
BRANCH   1  20
ATOM     19  C   UNL     1      -3.175  -1.173   1.052  1.00  0.00    +0.000 C 
ATOM     20  O   UNL     1      -2.685  -1.380  -0.279  1.00  0.00    +0.000 OA
ENDBRANCH   1  20
BRANCH   2  21
ATOM     21  O   UNL     1      -1.557  -3.831  -0.292  1.00  0.00    +0.000 OA
ATOM     22  H   UNL     1      -2.452  -3.488  -0.478  1.00  0.00    +0.000 HD
ENDBRANCH   2  21
TORSDOF 2
