REMARK  Name = /srv/my_project/app/compsite/backup/Dave/CORINA_stuff/newPDBs/SANC00199.pdb
AUTHORGENERATED BY OPEN BABEL 2.3.2
REMARK  6 active torsions:
REMARK  status: ('A' for Active; 'I' for Inactive)
REMARK    1  A    between atoms: C_1  and  C_2
REMARK    2  A    between atoms: C_2  and  C_3
REMARK    3  A    between atoms: C_9  and  C_10
REMARK    4  A    between atoms: C_9  and  C_11
REMARK    5  A    between atoms: C_11  and  O_12
REMARK    6  A    between atoms: C_17  and  C_18
REMARK                            x       y       z     vdW  Elec       q    Type
REMARK                         _______ _______ _______ _____ _____    ______ ____
ROOT
ATOM      1  C   UNL     1       0.426   0.173   0.147  1.00  0.00    +0.000 C 
ATOM      2  C   UNL     1       1.400   1.381  -0.065  1.00  0.00    +0.000 C 
ATOM      3  C   UNL     1       2.863   1.016  -0.373  1.00  0.00    +0.000 C 
ATOM      4 BR   UNL     1       3.070   0.873  -2.335  1.00  0.00    +0.000 Br
ATOM      5  C   UNL     1       3.370  -0.236   0.359  1.00  0.00    +0.000 C 
ATOM      6  C   UNL     1       4.825  -0.596   0.016  1.00  0.00    +0.000 C 
ATOM      7 CL   UNL     1       3.404   0.165   2.142  1.00  0.00    +0.000 Cl
ATOM      8  C   UNL     1       2.450  -1.453   0.138  1.00  0.00    +0.000 C 
ATOM      9  C   UNL     1       1.038  -1.135  -0.386  1.00  0.00    +0.000 C 
ENDROOT
BRANCH   1  17
ATOM     10  C   UNL     1      -2.328  -1.783  -1.039  1.00  0.00    +0.000 C 
ATOM     11  C   UNL     1      -2.233  -0.572  -0.085  1.00  0.00    +0.000 C 
ATOM     12  C   UNL     1      -2.167  -1.124   1.357  1.00  0.00    +0.000 C 
ATOM     13  C   UNL     1      -3.478   0.332  -0.299  1.00  0.00    +0.000 C 
ATOM     14 BR   UNL     1      -5.159  -0.318   0.421  1.00  0.00    +0.000 Br
ATOM     15  C   UNL     1      -3.117   1.675   0.304  1.00  0.00    +0.000 C 
ATOM     16  C   UNL     1      -1.599   1.797   0.178  1.00  0.00    +0.000 C 
ATOM     17  C   UNL     1      -1.045   0.464  -0.430  1.00  0.00    +0.000 C 
ATOM     18  C   UNL     1      -0.959   0.664  -1.979  1.00  0.00    +0.000 C 
ENDBRANCH   1  17
BRANCH   1  19
ATOM     19  O   UNL     1       0.350  -0.035   1.565  1.00  0.00    +0.000 OA
ATOM     20  H   UNL     1       0.194   0.804   2.028  1.00  0.00    +0.000 HD
ENDBRANCH   1  19
TORSDOF 2
