REMARK  Name = SANCDB_01064_minRM1.pdb
AUTHORGENERATED BY OPEN BABEL 2.3.2
REMARK  8 active torsions:
REMARK  status: ('A' for Active; 'I' for Inactive)
REMARK    1  A    between atoms: C_1  and  C_2
REMARK    2  A    between atoms: C_2  and  C_11
REMARK    3  A    between atoms: C_3  and  C_4
REMARK    4  A    between atoms: C_4  and  C_5
REMARK    5  A    between atoms: C_5  and  C_6
REMARK    6  A    between atoms: C_6  and  C_10
REMARK    7  A    between atoms: C_7  and  C_8
REMARK    8  A    between atoms: C_8  and  O_9
REMARK                            x       y       z     vdW  Elec       q    Type
REMARK                         _______ _______ _______ _____ _____    ______ ____
ROOT
ATOM      1  C   UNL     1       0.633   0.327   0.418  1.00  0.00    +0.000 C 
ENDROOT
BRANCH   1   2
ATOM      2  C   UNL     1       1.857  -0.499   0.752  1.00  0.00    +0.000 C 
ATOM      3  C   UNL     1       3.042  -0.404   0.115  1.00  0.00    +0.000 C 
ATOM      4  C   UNL     1       1.686  -1.453   1.906  1.00  0.00    +0.000 C 
BRANCH   3   5
ATOM      5  C   UNL     1       3.399   0.464  -1.047  1.00  0.00    +0.000 C 
BRANCH   5   6
ATOM      6  O   UNL     1       4.507   1.261  -0.661  1.00  0.00    +0.000 OA
ATOM      7  H   UNL     1       4.704   1.846  -1.411  1.00  0.00    +0.000 HD
ENDBRANCH   5   6
ENDBRANCH   3   5
ENDBRANCH   1   2
BRANCH   1   8
ATOM      8  C   UNL     1      -0.325  -0.413  -0.521  1.00  0.00    +0.000 C 
BRANCH   8  11
ATOM      9  C   UNL     1      -3.868   1.239  -0.859  1.00  0.00    +0.000 C 
ATOM     10  C   UNL     1      -2.773   0.323  -0.377  1.00  0.00    +0.000 C 
ATOM     11  C   UNL     1      -1.522   0.433  -0.864  1.00  0.00    +0.000 C 
ATOM     12  C   UNL     1      -3.210  -0.666   0.669  1.00  0.00    +0.000 C 
ENDBRANCH   8  11
ENDBRANCH   1   8
TORSDOF 5
