REMARK  Name = SANCDB_00918_minRM1.pdb
AUTHORGENERATED BY OPEN BABEL 2.3.2
REMARK  5 active torsions:
REMARK  status: ('A' for Active; 'I' for Inactive)
REMARK    1  A    between atoms: C_1  and  C_2
REMARK    2  A    between atoms: C_5  and  C_13
REMARK    3  A    between atoms: C_8  and  C_12
REMARK    4  A    between atoms: C_13  and  C_14
REMARK    5  A    between atoms: C_13  and  C_15
REMARK                            x       y       z     vdW  Elec       q    Type
REMARK                         _______ _______ _______ _____ _____    ______ ____
ROOT
ATOM      1  C   UNL     1       2.350   2.656  -1.996  1.00  0.00    +0.000 C 
ATOM      2  C   UNL     1       1.929   1.557  -1.065  1.00  0.00    +0.000 C 
ATOM      3  C   UNL     1       0.698   1.503  -0.520  1.00  0.00    +0.000 C 
ATOM      4  C   UNL     1       0.196   0.393   0.397  1.00  0.00    +0.000 C 
ATOM      5  C   UNL     1      -1.255  -0.051   0.021  1.00  0.00    +0.000 C 
ATOM      6  C   UNL     1      -1.598  -1.337   0.791  1.00  0.00    +0.000 C 
ATOM      7  C   UNL     1      -0.651  -2.471   0.413  1.00  0.00    +0.000 C 
ATOM      8  C   UNL     1       0.806  -2.077   0.407  1.00  0.00    +0.000 C 
ATOM      9  C   UNL     1       1.190  -0.780   0.434  1.00  0.00    +0.000 C 
ATOM     10  C   UNL     1       2.628  -0.309   0.489  1.00  0.00    +0.000 C 
ATOM     11  C   UNL     1       2.971   0.509  -0.758  1.00  0.00    +0.000 C 
ATOM     12  C   UNL     1       1.735  -3.262   0.356  1.00  0.00    +0.000 C 
ENDROOT
BRANCH   5  13
ATOM     13  C   UNL     1      -2.337   1.062   0.216  1.00  0.00    +0.000 C 
ATOM     14  C   UNL     1      -2.526   1.509   1.668  1.00  0.00    +0.000 C 
ATOM     15  C   UNL     1      -3.694   0.646  -0.370  1.00  0.00    +0.000 C 
ENDBRANCH   5  13
TORSDOF 1
