REMARK  Name = /srv/my_project/app/compsite/backup/Dave/CORINA_stuff/newPDBs/SANC00625.pdb
AUTHORGENERATED BY OPEN BABEL 2.3.2
REMARK  5 active torsions:
REMARK  status: ('A' for Active; 'I' for Inactive)
REMARK    1  A    between atoms: C_1  and  C_2
REMARK    2  A    between atoms: C_7  and  C_25
REMARK    3  A    between atoms: C_7  and  O_26
REMARK    4  A    between atoms: O_26  and  C_27
REMARK    5  A    between atoms: C_27  and  C_29
REMARK                            x       y       z     vdW  Elec       q    Type
REMARK                         _______ _______ _______ _____ _____    ______ ____
ROOT
ATOM      1  C   UNL     1      -1.067   4.498   0.993  1.00  0.00    +0.000 C 
ATOM      2  C   UNL     1      -0.207   3.358   1.442  1.00  0.00    +0.000 C 
ATOM      3  C   UNL     1      -0.165   2.098   0.957  1.00  0.00    +0.000 C 
ATOM      4  C   UNL     1       0.714   1.044   1.593  1.00  0.00    +0.000 C 
ATOM      5  C   UNL     1       2.133   0.983   1.030  1.00  0.00    +0.000 C 
ATOM      6  C   UNL     1       3.080   1.761   1.599  1.00  0.00    +0.000 C 
ATOM      7  C   UNL     1       2.458  -0.017  -0.115  1.00  0.00    +0.000 C 
ATOM      8  C   UNL     1       1.794  -1.388   0.212  1.00  0.00    +0.000 C 
ATOM      9  O   UNL     1       2.276  -2.222   0.973  1.00  0.00    +0.000 OA
ATOM     10  O   UNL     1       0.578  -1.502  -0.393  1.00  0.00    +0.000 OA
ATOM     11  C   UNL     1      -0.143  -2.704  -0.117  1.00  0.00    +0.000 C 
ATOM     12  C   UNL     1      -1.608  -2.420  -0.122  1.00  0.00    +0.000 C 
ATOM     13  C   UNL     1      -2.521  -2.874   0.745  1.00  0.00    +0.000 C 
ATOM     14  C   UNL     1      -3.894  -2.486   0.316  1.00  0.00    +0.000 C 
ATOM     15  N   UNL     1      -3.721  -2.021  -1.075  1.00  0.00    +0.000 NA
ATOM     16  C   UNL     1      -2.280  -1.638  -1.208  1.00  0.00    +0.000 C 
ATOM     17  C   UNL     1      -2.237  -0.086  -1.133  1.00  0.00    +0.000 C 
ATOM     18  C   UNL     1      -3.683   0.340  -0.891  1.00  0.00    +0.000 C 
ATOM     19  C   UNL     1      -4.503  -0.828  -1.392  1.00  0.00    +0.000 C 
ATOM     20  O   UNL     1      -1.417   0.420  -0.067  1.00  0.00    +0.000 OA
ATOM     21  C   UNL     1      -1.023   1.710  -0.196  1.00  0.00    +0.000 C 
ATOM     22  O   UNL     1      -1.306   2.447  -1.128  1.00  0.00    +0.000 OA
ATOM     23  C   UNL     1       2.050   0.581  -1.469  1.00  0.00    +0.000 C 
ENDROOT
BRANCH   7  24
ATOM     24  O   UNL     1       3.907  -0.190  -0.119  1.00  0.00    +0.000 OA
BRANCH  24  25
ATOM     25  C   UNL     1       4.440  -1.160  -0.908  1.00  0.00    +0.000 C 
ATOM     26  O   UNL     1       3.817  -1.873  -1.680  1.00  0.00    +0.000 OA
ATOM     27  C   UNL     1       5.923  -1.223  -0.708  1.00  0.00    +0.000 C 
ENDBRANCH  24  25
ENDBRANCH   7  24
TORSDOF 2
