REMARK  Name = SANCDB_01006_minRM1.pdb
AUTHORGENERATED BY OPEN BABEL 2.3.2
REMARK  13 active torsions:
REMARK  status: ('A' for Active; 'I' for Inactive)
REMARK    1  A    between atoms: C_1  and  C_2
REMARK    2  A    between atoms: C_2  and  C_3
REMARK    3  A    between atoms: C_2  and  C_9
REMARK    4  A    between atoms: C_3  and  C_4
REMARK    5  A    between atoms: C_4  and  C_5
REMARK    6  A    between atoms: C_6  and  C_7
REMARK    7  A    between atoms: C_6  and  C_8
REMARK    8  A    between atoms: C_12  and  C_31
REMARK    9  A    between atoms: C_13  and  C_30
REMARK   10  A    between atoms: C_21  and  C_29
REMARK   11  A    between atoms: C_24  and  O_28
REMARK   12  A    between atoms: C_25  and  C_26
REMARK   13  A    between atoms: C_25  and  C_27
REMARK                            x       y       z     vdW  Elec       q    Type
REMARK                         _______ _______ _______ _____ _____    ______ ____
ROOT
ATOM      1  C   UNL     1       2.249  -0.124  -0.139  1.00  0.00    +0.000 C 
ATOM      2  C   UNL     1       2.175  -1.206  -1.250  1.00  0.00    +0.000 C 
ATOM      3  C   UNL     1       0.705  -1.685  -1.319  1.00  0.00    +0.000 C 
ATOM      4  C   UNL     1       0.038  -1.109  -0.055  1.00  0.00    +0.000 C 
ATOM      5  C   UNL     1       0.757   0.285   0.035  1.00  0.00    +0.000 C 
ATOM      6  C   UNL     1       0.393   0.919   1.383  1.00  0.00    +0.000 C 
ATOM      7  C   UNL     1      -1.138   1.055   1.536  1.00  0.00    +0.000 C 
ATOM      8  C   UNL     1      -2.011   0.060   0.769  1.00  0.00    +0.000 C 
ATOM      9  C   UNL     1      -1.474  -0.922  -0.007  1.00  0.00    +0.000 C 
ATOM     10  C   UNL     1      -2.307  -1.922  -0.791  1.00  0.00    +0.000 C 
ATOM     11  C   UNL     1      -3.831  -1.736  -0.727  1.00  0.00    +0.000 C 
ATOM     12  C   UNL     1      -4.170  -0.269  -0.441  1.00  0.00    +0.000 C 
ATOM     13  C   UNL     1      -3.548   0.160   0.944  1.00  0.00    +0.000 C 
ATOM     14  C   UNL     1      -4.112   1.555   1.350  1.00  0.00    +0.000 C 
ATOM     15  C   UNL     1      -4.531   2.401   0.156  1.00  0.00    +0.000 C 
ATOM     16  C   UNL     1      -5.683   1.753  -0.631  1.00  0.00    +0.000 C 
ATOM     17  C   UNL     1      -5.649   0.184  -0.672  1.00  0.00    +0.000 C 
ATOM     18  C   UNL     1      -6.128  -0.241  -2.084  1.00  0.00    +0.000 C 
ATOM     19  C   UNL     1      -6.643  -0.454   0.319  1.00  0.00    +0.000 C 
ATOM     20  C   UNL     1      -3.852  -0.799   2.128  1.00  0.00    +0.000 C 
ATOM     21  C   UNL     1       0.336   1.270  -1.100  1.00  0.00    +0.000 C 
ATOM     22  C   UNL     1       0.347  -2.102   1.112  1.00  0.00    +0.000 C 
ENDROOT
BRANCH   1  24
ATOM     23  C   UNL     1       3.624   1.416  -1.757  1.00  0.00    +0.000 C 
ATOM     24  C   UNL     1       3.290   1.019  -0.315  1.00  0.00    +0.000 C 
BRANCH  24  25
ATOM     25  C   UNL     1       4.598   0.735   0.469  1.00  0.00    +0.000 C 
BRANCH  25  26
ATOM     26  C   UNL     1       5.365  -0.520   0.044  1.00  0.00    +0.000 C 
BRANCH  26  27
ATOM     27  C   UNL     1       6.636  -0.668   0.837  1.00  0.00    +0.000 C 
ATOM     28  C   UNL     1       7.894  -0.402   0.431  1.00  0.00    +0.000 C 
ATOM     29  C   UNL     1       8.268   0.154  -0.915  1.00  0.00    +0.000 C 
ATOM     30  C   UNL     1       9.063  -0.642   1.350  1.00  0.00    +0.000 C 
ENDBRANCH  26  27
ENDBRANCH  25  26
ENDBRANCH  24  25
ENDBRANCH   1  24
BRANCH  16  31
ATOM     31  O   UNL     1      -6.932   2.209  -0.111  1.00  0.00    +0.000 OA
ATOM     32  H   UNL     1      -6.949   3.178  -0.191  1.00  0.00    +0.000 HD
ENDBRANCH  16  31
TORSDOF 5
