REMARK  Name = SANCDB_01072_minRM1.pdb
AUTHORGENERATED BY OPEN BABEL 2.3.2
REMARK  15 active torsions:
REMARK  status: ('A' for Active; 'I' for Inactive)
REMARK    1  A    between atoms: C_1  and  C_2
REMARK    2  A    between atoms: C_2  and  C_3
REMARK    3  A    between atoms: C_3  and  C_4
REMARK    4  A    between atoms: C_4  and  C_5
REMARK    5  A    between atoms: C_6  and  C_7
REMARK    6  A    between atoms: C_8  and  C_9
REMARK    7  A    between atoms: C_10  and  C_11
REMARK    8  A    between atoms: C_11  and  C_12
REMARK    9  A    between atoms: C_12  and  C_13
REMARK   10  A    between atoms: C_13  and  C_14
REMARK   11  A    between atoms: C_14  and  C_15
REMARK   12  A    between atoms: C_15  and  C_16
REMARK   13  A    between atoms: C_16  and  C_17
REMARK   14  A    between atoms: C_17  and  C_18
REMARK   15  A    between atoms: C_18  and  O_20
REMARK                            x       y       z     vdW  Elec       q    Type
REMARK                         _______ _______ _______ _____ _____    ______ ____
ROOT
ATOM      1  C   UNL     1       1.548   0.258  -2.763  1.00  0.00    +0.000 C 
ENDROOT
BRANCH   1   3
ATOM      2  C   UNL     1      -0.705   1.010  -1.544  1.00  0.00    +0.000 C 
ATOM      3  C   UNL     1       0.308   0.673  -2.091  1.00  0.00    +0.000 C 
BRANCH   2   5
ATOM      4  C   UNL     1      -3.017   1.780  -0.290  1.00  0.00    +0.000 C 
ATOM      5  C   UNL     1      -2.004   1.443  -0.840  1.00  0.00    +0.000 C 
BRANCH   4   7
ATOM      6  C   UNL     1      -5.262   1.359   0.473  1.00  0.00    +0.000 C 
ATOM      7  C   UNL     1      -4.213   2.186   0.361  1.00  0.00    +0.000 C 
BRANCH   6   8
ATOM      8  C   UNL     1      -6.554   1.736   1.141  1.00  0.00    +0.000 C 
BRANCH   8   9
ATOM      9  C   UNL     1      -6.815   0.966   2.439  1.00  0.00    +0.000 C 
BRANCH   9  11
ATOM     10  C   UNL     1      -7.400  -1.230   3.528  1.00  0.00    +0.000 C 
ATOM     11  C   UNL     1      -7.054  -0.530   2.223  1.00  0.00    +0.000 C 
ENDBRANCH   9  11
ENDBRANCH   8   9
ENDBRANCH   6   8
ENDBRANCH   4   7
ENDBRANCH   2   5
ENDBRANCH   1   3
BRANCH   1  12
ATOM     12  C   UNL     1       2.760   0.976  -2.169  1.00  0.00    +0.000 C 
BRANCH  12  13
ATOM     13  C   UNL     1       4.070   0.663  -2.898  1.00  0.00    +0.000 C 
BRANCH  13  14
ATOM     14  C   UNL     1       4.494  -0.810  -2.902  1.00  0.00    +0.000 C 
BRANCH  14  15
ATOM     15  C   UNL     1       4.625  -1.468  -1.525  1.00  0.00    +0.000 C 
BRANCH  15  16
ATOM     16  C   UNL     1       5.665  -0.796  -0.627  1.00  0.00    +0.000 C 
BRANCH  16  17
ATOM     17  C   UNL     1       5.831  -1.553   0.690  1.00  0.00    +0.000 C 
BRANCH  17  18
ATOM     18  C   UNL     1       6.851  -0.898   1.582  1.00  0.00    +0.000 C 
ATOM     19  O   UNL     1       7.513   0.098   1.350  1.00  0.00    +0.000 OA
BRANCH  18  20
ATOM     20  O   UNL     1       6.987  -1.554   2.752  1.00  0.00    +0.000 OA
ATOM     21  H   UNL     1       7.667  -1.038   3.235  1.00  0.00    +0.000 HD
ENDBRANCH  18  20
ENDBRANCH  17  18
ENDBRANCH  16  17
ENDBRANCH  15  16
ENDBRANCH  14  15
ENDBRANCH  13  14
ENDBRANCH  12  13
ENDBRANCH   1  12
TORSDOF 14
