REMARK  Name = /srv/my_project/app/compsite/backup/Dave/CORINA_stuff/newPDBs/SANC00499.pdb
AUTHORGENERATED BY OPEN BABEL 2.3.2
REMARK  23 active torsions:
REMARK  status: ('A' for Active; 'I' for Inactive)
REMARK    1  A    between atoms: C_2  and  O_3
REMARK    2  A    between atoms: O_3  and  C_4
REMARK    3  A    between atoms: C_15  and  O_17
REMARK    4  A    between atoms: O_17  and  C_18
REMARK    5  A    between atoms: C_21  and  C_23
REMARK    6  A    between atoms: C_23  and  O_24
REMARK    7  A    between atoms: C_25  and  O_27
REMARK    8  A    between atoms: C_28  and  O_30
REMARK    9  A    between atoms: C_31  and  O_33
REMARK   10  A    between atoms: C_36  and  C_37
REMARK   11  A    between atoms: C_42  and  C_43
REMARK   12  A    between atoms: C_44  and  O_45
REMARK   13  A    between atoms: C_44  and  C_46
REMARK   14  A    between atoms: C_46  and  C_48
REMARK   15  A    between atoms: C_46  and  C_49
REMARK   16  A    between atoms: C_49  and  C_51
REMARK   17  A    between atoms: C_51  and  C_52
REMARK   18  A    between atoms: C_52  and  C_53
REMARK   19  A    between atoms: C_53  and  C_54
REMARK   20  A    between atoms: C_53  and  C_55
REMARK   21  A    between atoms: C_58  and  O_60
REMARK   22  A    between atoms: C_61  and  O_63
REMARK   23  A    between atoms: C_64  and  O_66
REMARK                            x       y       z     vdW  Elec       q    Type
REMARK                         _______ _______ _______ _____ _____    ______ ____
ROOT
ATOM      1  C   UNL     1      -3.281   1.812   1.013  1.00  0.00    +0.000 C 
ATOM      2  C   UNL     1      -1.929   1.401   1.658  1.00  0.00    +0.000 C 
ATOM      3  C   UNL     1      -0.886   1.619   0.565  1.00  0.00    +0.000 C 
ATOM      4  C   UNL     1       0.493   0.965   0.743  1.00  0.00    +0.000 C 
ATOM      5  C   UNL     1       1.178   1.486   2.016  1.00  0.00    +0.000 C 
ATOM      6  C   UNL     1       2.637   1.163   2.078  1.00  0.00    +0.000 C 
ATOM      7  C   UNL     1       3.374   0.741   1.034  1.00  0.00    +0.000 C 
ATOM      8  C   UNL     1       4.844   0.413   1.235  1.00  0.00    +0.000 C 
ATOM      9  C   UNL     1       5.758   0.852   0.076  1.00  0.00    +0.000 C 
ATOM     10  C   UNL     1       5.050   1.838  -0.847  1.00  0.00    +0.000 C 
ATOM     11  C   UNL     1       3.757   1.256  -1.429  1.00  0.00    +0.000 C 
ATOM     12  C   UNL     1       2.805   0.587  -0.383  1.00  0.00    +0.000 C 
ATOM     13  C   UNL     1       2.723  -0.932  -0.676  1.00  0.00    +0.000 C 
ATOM     14  C   UNL     1       1.379   1.262  -0.500  1.00  0.00    +0.000 C 
ATOM     15  C   UNL     1       0.644   0.955  -1.834  1.00  0.00    +0.000 C 
ATOM     16  C   UNL     1      -0.754   1.591  -1.917  1.00  0.00    +0.000 C 
ATOM     17  C   UNL     1      -1.636   1.184  -0.721  1.00  0.00    +0.000 C 
ATOM     18  C   UNL     1      -1.862  -0.351  -0.754  1.00  0.00    +0.000 C 
ATOM     19  C   UNL     1      -2.976   1.990  -0.526  1.00  0.00    +0.000 C 
ENDROOT
BRANCH  19  20
ATOM     20  C   UNL     1      -4.147   1.809  -1.530  1.00  0.00    +0.000 C 
ATOM     21  C   UNL     1      -5.387   2.637  -1.160  1.00  0.00    +0.000 C 
BRANCH  20  22
ATOM     22  C   UNL     1      -4.542   0.408  -1.995  1.00  0.00    +0.000 C 
ATOM     23  O   UNL     1      -4.101  -0.008  -3.072  1.00  0.00    +0.000 OA
BRANCH  22  24
ATOM     24  C   UNL     1      -5.450  -0.457  -1.136  1.00  0.00    +0.000 C 
BRANCH  24  25
ATOM     25  C   UNL     1      -6.126  -1.611  -1.888  1.00  0.00    +0.000 C 
BRANCH  25  26
ATOM     26  C   UNL     1      -7.453  -1.235  -2.579  1.00  0.00    +0.000 C 
ATOM     27  C   UNL     1      -8.138  -2.502  -3.100  1.00  0.00    +0.000 C 
ATOM     28  C   UNL     1      -7.272  -0.245  -3.728  1.00  0.00    +0.000 C 
ENDBRANCH  25  26
ENDBRANCH  24  25
ENDBRANCH  22  24
ENDBRANCH  20  22
ENDBRANCH  19  20
BRANCH  19  29
ATOM     29  O   UNL     1      -2.638   3.413  -0.637  1.00  0.00    +0.000 OA
ATOM     30  H   UNL     1      -2.427   3.609  -1.567  1.00  0.00    +0.000 HD
ENDBRANCH  19  29
BRANCH   9  31
ATOM     31  O   UNL     1       6.150  -0.277  -0.720  1.00  0.00    +0.000 OA
BRANCH  31  32
ATOM     32  C   UNL     1       7.279  -0.980  -0.185  1.00  0.00    +0.000 C 
ATOM     33  O   UNL     1       8.467  -0.205  -0.331  1.00  0.00    +0.000 OA
ATOM     34  C   UNL     1       9.558  -0.769   0.424  1.00  0.00    +0.000 C 
ATOM     35  C   UNL     1       9.602  -2.317   0.336  1.00  0.00    +0.000 C 
ATOM     36  C   UNL     1       8.871  -2.824  -0.922  1.00  0.00    +0.000 C 
ATOM     37  C   UNL     1       7.429  -2.282  -1.002  1.00  0.00    +0.000 C 
BRANCH  37  38
ATOM     38  O   UNL     1       6.491  -3.266  -0.539  1.00  0.00    +0.000 OA
ATOM     39  H   UNL     1       5.609  -2.865  -0.651  1.00  0.00    +0.000 HD
ENDBRANCH  37  38
BRANCH  36  40
ATOM     40  O   UNL     1       9.617  -2.468  -2.094  1.00  0.00    +0.000 OA
ATOM     41  H   UNL     1       9.410  -1.541  -2.316  1.00  0.00    +0.000 HD
ENDBRANCH  36  40
BRANCH  35  42
ATOM     42  O   UNL     1       8.951  -2.841   1.507  1.00  0.00    +0.000 OA
ATOM     43  H   UNL     1       8.923  -3.812   1.415  1.00  0.00    +0.000 HD
ENDBRANCH  35  42
BRANCH  34  44
ATOM     44  C   UNL     1      10.854  -0.119  -0.077  1.00  0.00    +0.000 C 
BRANCH  44  45
ATOM     45  O   UNL     1      11.970  -0.470   0.731  1.00  0.00    +0.000 OA
ATOM     46  H   UNL     1      11.834  -0.074   1.610  1.00  0.00    +0.000 HD
ENDBRANCH  44  45
ENDBRANCH  34  44
ENDBRANCH  31  32
ENDBRANCH   9  31
BRANCH   1  47
ATOM     47  O   UNL     1      -4.299   0.845   1.266  1.00  0.00    +0.000 OA
BRANCH  47  48
ATOM     48  C   UNL     1      -4.845   0.920   2.593  1.00  0.00    +0.000 C 
ATOM     49  O   UNL     1      -3.922   0.475   3.590  1.00  0.00    +0.000 OA
ATOM     50  C   UNL     1      -3.918  -0.942   3.750  1.00  0.00    +0.000 C 
ATOM     51  C   UNL     1      -5.246  -1.438   4.330  1.00  0.00    +0.000 C 
ATOM     52  C   UNL     1      -6.390  -0.471   4.003  1.00  0.00    +0.000 C 
ATOM     53  C   UNL     1      -6.175   0.122   2.613  1.00  0.00    +0.000 C 
BRANCH  53  54
ATOM     54  O   UNL     1      -7.303   0.952   2.282  1.00  0.00    +0.000 OA
ATOM     55  H   UNL     1      -7.135   1.306   1.389  1.00  0.00    +0.000 HD
ENDBRANCH  53  54
BRANCH  52  56
ATOM     56  O   UNL     1      -7.641  -1.177   4.057  1.00  0.00    +0.000 OA
ATOM     57  H   UNL     1      -8.288  -0.569   3.641  1.00  0.00    +0.000 HD
ENDBRANCH  52  56
BRANCH  51  58
ATOM     58  O   UNL     1      -5.538  -2.733   3.791  1.00  0.00    +0.000 OA
ATOM     59  H   UNL     1      -6.504  -2.845   3.928  1.00  0.00    +0.000 HD
ENDBRANCH  51  58
ENDBRANCH  47  48
ENDBRANCH   1  47
TORSDOF 18
