REMARK  Name = SANCDB_00892_minRM1.pdb
AUTHORGENERATED BY OPEN BABEL 2.3.2
REMARK  8 active torsions:
REMARK  status: ('A' for Active; 'I' for Inactive)
REMARK    1  A    between atoms: C_8  and  O_24
REMARK    2  A    between atoms: C_9  and  O_12
REMARK    3  A    between atoms: O_12  and  C_13
REMARK    4  A    between atoms: C_14  and  O_23
REMARK    5  A    between atoms: C_15  and  O_22
REMARK    6  A    between atoms: C_16  and  O_21
REMARK    7  A    between atoms: C_17  and  C_19
REMARK    8  A    between atoms: C_19  and  O_20
REMARK                            x       y       z     vdW  Elec       q    Type
REMARK                         _______ _______ _______ _____ _____    ______ ____
ROOT
ATOM      1  C   UNL     1      -0.853   0.381   0.579  1.00  0.00    +0.000 C 
ATOM      2  C   UNL     1      -2.098   1.054   1.178  1.00  0.00    +0.000 C 
ATOM      3  C   UNL     1      -3.106  -0.005   1.639  1.00  0.00    +0.000 C 
ATOM      4  C   UNL     1      -2.978  -1.322   0.859  1.00  0.00    +0.000 C 
ATOM      5  C   UNL     1      -2.406  -1.116  -0.556  1.00  0.00    +0.000 C 
ATOM      6  O   UNL     1      -1.187  -0.354  -0.600  1.00  0.00    +0.000 OA
ENDROOT
BRANCH   4   7
ATOM      7  O   UNL     1      -2.067  -2.173   1.584  1.00  0.00    +0.000 OA
ATOM      8  H   UNL     1      -2.190  -3.076   1.236  1.00  0.00    +0.000 HD
ENDBRANCH   4   7
BRANCH   3   9
ATOM      9  O   UNL     1      -4.428   0.535   1.506  1.00  0.00    +0.000 OA
ATOM     10  H   UNL     1      -4.464   1.298   2.115  1.00  0.00    +0.000 HD
ENDBRANCH   3   9
BRANCH   2  11
ATOM     11  O   UNL     1      -1.789   1.909   2.292  1.00  0.00    +0.000 OA
ATOM     12  H   UNL     1      -0.994   2.417   2.042  1.00  0.00    +0.000 HD
ENDBRANCH   2  11
BRANCH   1  13
ATOM     13  O   UNL     1       0.056   1.450   0.246  1.00  0.00    +0.000 OA
BRANCH  13  22
ATOM     14  C   UNL     1       3.807  -1.708  -0.530  1.00  0.00    +0.000 A 
ATOM     15  C   UNL     1       5.104  -1.841  -0.823  1.00  0.00    +0.000 A 
ATOM     16  C   UNL     1       5.987  -0.685  -1.060  1.00  0.00    +0.000 A 
ATOM     17  O   UNL     1       7.172  -0.848  -1.324  1.00  0.00    +0.000 OA
ATOM     18  O   UNL     1       5.410   0.574  -0.969  1.00  0.00    +0.000 OA
ATOM     19  C   UNL     1       4.043   0.730  -0.662  1.00  0.00    +0.000 A 
ATOM     20  C   UNL     1       3.547   2.026  -0.599  1.00  0.00    +0.000 A 
ATOM     21  C   UNL     1       2.202   2.201  -0.302  1.00  0.00    +0.000 A 
ATOM     22  C   UNL     1       1.352   1.113  -0.056  1.00  0.00    +0.000 A 
ATOM     23  C   UNL     1       1.872  -0.183  -0.135  1.00  0.00    +0.000 A 
ATOM     24  C   UNL     1       3.226  -0.378  -0.438  1.00  0.00    +0.000 A 
BRANCH  21  25
ATOM     25  O   UNL     1       1.719   3.481  -0.262  1.00  0.00    +0.000 OA
ATOM     26  H   UNL     1       0.754   3.394  -0.156  1.00  0.00    +0.000 HD
ENDBRANCH  21  25
ENDBRANCH  13  22
ENDBRANCH   1  13
BRANCH   5  27
ATOM     27  C   UNL     1      -3.422  -0.497  -1.525  1.00  0.00    +0.000 C 
BRANCH  27  28
ATOM     28  O   UNL     1      -4.545  -1.356  -1.680  1.00  0.00    +0.000 OA
ATOM     29  H   UNL     1      -5.189  -0.884  -2.237  1.00  0.00    +0.000 HD
ENDBRANCH  27  28
ENDBRANCH   5  27
TORSDOF 8
