REMARK  Name = /srv/my_project/app/compsite/backup/Dave/CORINA_stuff/newPDBs/SANC00345.pdb
AUTHORGENERATED BY OPEN BABEL 2.3.2
REMARK  4 active torsions:
REMARK  status: ('A' for Active; 'I' for Inactive)
REMARK    1  A    between atoms: C_4  and  O_5
REMARK    2  A    between atoms: O_5  and  C_6
REMARK    3  A    between atoms: C_23  and  O_24
REMARK    4  A    between atoms: O_24  and  C_25
REMARK                            x       y       z     vdW  Elec       q    Type
REMARK                         _______ _______ _______ _____ _____    ______ ____
ROOT
ATOM      1  C   UNL     1       1.507  -0.811  -0.012  1.00  0.00    +0.000 C 
ATOM      2  C   UNL     1       2.998  -1.118   0.186  1.00  0.00    +0.000 C 
ATOM      3  C   UNL     1       3.717   0.111   0.656  1.00  0.00    +0.000 C 
ATOM      4  C   UNL     1       3.140   1.028   1.439  1.00  0.00    +0.000 C 
ATOM      5  C   UNL     1       1.730   0.884   1.877  1.00  0.00    +0.000 C 
ATOM      6  O   UNL     1       1.369   1.580   2.827  1.00  0.00    +0.000 OA
ATOM      7  C   UNL     1       0.823  -0.148   1.200  1.00  0.00    +0.000 C 
ATOM      8  C   UNL     1       0.593  -1.348   2.134  1.00  0.00    +0.000 C 
ATOM      9  C   UNL     1       0.475  -2.549   1.193  1.00  0.00    +0.000 C 
ATOM     10  N   UNL     1       0.709  -2.051  -0.183  1.00  0.00    +0.000 NA
ATOM     11  C   UNL     1      -0.582  -1.678  -0.819  1.00  0.00    +0.000 C 
ATOM     12  C   UNL     1      -1.250  -0.430  -0.247  1.00  0.00    +0.000 A 
ATOM     13  C   UNL     1      -0.557   0.359   0.728  1.00  0.00    +0.000 A 
ATOM     14  C   UNL     1      -1.178   1.504   1.240  1.00  0.00    +0.000 A 
ATOM     15  C   UNL     1      -2.429   1.840   0.762  1.00  0.00    +0.000 A 
ATOM     16  O   UNL     1      -3.138   2.929   1.172  1.00  0.00    +0.000 OA
ATOM     17  C   UNL     1      -4.327   2.792   0.380  1.00  0.00    +0.000 C 
ATOM     18  O   UNL     1      -4.305   1.643  -0.485  1.00  0.00    +0.000 OA
ATOM     19  C   UNL     1      -3.093   1.093  -0.188  1.00  0.00    +0.000 A 
ATOM     20  C   UNL     1      -2.530  -0.055  -0.719  1.00  0.00    +0.000 A 
ENDROOT
BRANCH   3  21
ATOM     21  O   UNL     1       5.059   0.200   0.344  1.00  0.00    +0.000 OA
ATOM     22  C   UNL     1       5.254   0.758  -0.956  1.00  0.00    +0.000 C 
ENDBRANCH   3  21
BRANCH  20  23
ATOM     23  O   UNL     1      -3.072  -0.880  -1.665  1.00  0.00    +0.000 OA
ATOM     24  C   UNL     1      -4.366  -0.564  -2.160  1.00  0.00    +0.000 C 
ENDBRANCH  20  23
TORSDOF 2
