REMARK  Name = /srv/my_project/app/compsite/backup/Dave/CORINA_stuff/newPDBs/SANC00626.pdb
AUTHORGENERATED BY OPEN BABEL 2.3.2
REMARK  9 active torsions:
REMARK  status: ('A' for Active; 'I' for Inactive)
REMARK    1  A    between atoms: C_1  and  O_2
REMARK    2  A    between atoms: O_2  and  C_3
REMARK    3  A    between atoms: C_12  and  O_13
REMARK    4  A    between atoms: O_13  and  C_14
REMARK    5  A    between atoms: C_17  and  O_18
REMARK    6  A    between atoms: O_18  and  C_19
REMARK    7  A    between atoms: C_19  and  C_20
REMARK    8  A    between atoms: C_22  and  C_23
REMARK    9  A    between atoms: C_22  and  C_24
REMARK                            x       y       z     vdW  Elec       q    Type
REMARK                         _______ _______ _______ _____ _____    ______ ____
ROOT
ATOM      1  C   UNL     1       0.369   2.374  -0.119  1.00  0.00    +0.000 A 
ATOM      2  C   UNL     1       1.765   2.466  -0.068  1.00  0.00    +0.000 A 
ATOM      3  C   UNL     1       2.576   1.347   0.056  1.00  0.00    +0.000 A 
ATOM      4  N   UNL     1       3.897   1.554   0.103  1.00  0.00    +0.000 NA
ATOM      5  C   UNL     1       4.640   0.447   0.247  1.00  0.00    +0.000 A 
ATOM      6  O   UNL     1       6.000   0.472   0.343  1.00  0.00    +0.000 OA
ATOM      7  C   UNL     1       6.415  -0.812   0.494  1.00  0.00    +0.000 A 
ATOM      8  C   UNL     1       5.342  -1.672   0.491  1.00  0.00    +0.000 A 
ATOM      9  C   UNL     1       4.187  -0.863   0.322  1.00  0.00    +0.000 A 
ATOM     10  C   UNL     1       2.802  -1.055   0.227  1.00  0.00    +0.000 A 
ATOM     11  C   UNL     1       1.963   0.076   0.124  1.00  0.00    +0.000 A 
ATOM     12  C   UNL     1       0.555  -0.023   0.082  1.00  0.00    +0.000 A 
ATOM     13  C   UNL     1      -0.244   1.115  -0.033  1.00  0.00    +0.000 A 
ENDROOT
BRANCH   1  15
ATOM     14  C   UNL     1       0.108   4.735  -0.391  1.00  0.00    +0.000 C 
ATOM     15  O   UNL     1      -0.477   3.450  -0.235  1.00  0.00    +0.000 OA
ENDBRANCH   1  15
BRANCH  10  16
ATOM     16  O   UNL     1       2.249  -2.317   0.315  1.00  0.00    +0.000 OA
ATOM     17  C   UNL     1       2.354  -2.986  -0.943  1.00  0.00    +0.000 C 
ENDBRANCH  10  16
BRANCH  13  18
ATOM     18  O   UNL     1      -1.614   1.101  -0.092  1.00  0.00    +0.000 OA
BRANCH  18  19
ATOM     19  C   UNL     1      -2.281  -0.117   0.239  1.00  0.00    +0.000 C 
BRANCH  19  20
ATOM     20  C   UNL     1      -3.755   0.141   0.269  1.00  0.00    +0.000 C 
ATOM     21  O   UNL     1      -4.514  -0.542  -0.743  1.00  0.00    +0.000 OA
ATOM     22  C   UNL     1      -4.771  -0.937   0.612  1.00  0.00    +0.000 C 
ATOM     23  C   UNL     1      -6.119  -0.522   1.114  1.00  0.00    +0.000 C 
ATOM     24  C   UNL     1      -4.346  -2.338   0.924  1.00  0.00    +0.000 C 
ENDBRANCH  19  20
ENDBRANCH  18  19
ENDBRANCH  13  18
TORSDOF 5
