REMARK  Name = SANCDB_01114_minRM1.pdb
AUTHORGENERATED BY OPEN BABEL 2.3.2
REMARK  6 active torsions:
REMARK  status: ('A' for Active; 'I' for Inactive)
REMARK    1  A    between atoms: C_1  and  C_2
REMARK    2  A    between atoms: C_2  and  C_4
REMARK    3  A    between atoms: C_4  and  O_22
REMARK    4  A    between atoms: C_6  and  O_21
REMARK    5  A    between atoms: C_7  and  C_20
REMARK    6  A    between atoms: C_13  and  O_18
REMARK                            x       y       z     vdW  Elec       q    Type
REMARK                         _______ _______ _______ _____ _____    ______ ____
ROOT
ATOM      1  C   UNL     1       1.579  -0.287   0.207  1.00  0.00    +0.000 C 
ATOM      2  C   UNL     1       0.800   0.828   0.923  1.00  0.00    +0.000 C 
ATOM      3  C   UNL     1      -0.492   0.266   1.559  1.00  0.00    +0.000 C 
ATOM      4  C   UNL     1      -1.497  -0.371   0.544  1.00  0.00    +0.000 C 
ATOM      5  C   UNL     1      -2.434   0.585  -0.248  1.00  0.00    +0.000 C 
ATOM      6  C   UNL     1      -2.737   2.036   0.090  1.00  0.00    +0.000 C 
ATOM      7  O   UNL     1      -3.632   0.981   0.442  1.00  0.00    +0.000 OA
ATOM      8  C   UNL     1      -2.639   0.012  -1.639  1.00  0.00    +0.000 C 
ATOM      9  C   UNL     1      -1.603  -1.045  -1.885  1.00  0.00    +0.000 C 
ATOM     10  C   UNL     1      -0.694  -1.107  -0.664  1.00  0.00    +0.000 C 
ATOM     11  C   UNL     1       0.659  -0.418  -1.005  1.00  0.00    +0.000 C 
ATOM     12  C   UNL     1       0.397   1.037  -1.291  1.00  0.00    +0.000 C 
ATOM     13  O   UNL     1       0.121   1.516  -2.376  1.00  0.00    +0.000 OA
ATOM     14  O   UNL     1       0.475   1.751  -0.127  1.00  0.00    +0.000 OA
ATOM     15  O   UNL     1      -2.980  -1.382  -1.710  1.00  0.00    +0.000 OA
ATOM     16  C   UNL     1      -2.370  -1.378   1.341  1.00  0.00    +0.000 C 
ENDROOT
BRANCH   1  18
ATOM     17  C   UNL     1       3.432   0.868  -1.278  1.00  0.00    +0.000 C 
ATOM     18  C   UNL     1       3.052   0.090  -0.041  1.00  0.00    +0.000 C 
ATOM     19  C   UNL     1       4.027  -0.242   0.829  1.00  0.00    +0.000 C 
ENDBRANCH   1  18
BRANCH  10  20
ATOM     20  O   UNL     1      -0.445  -2.487  -0.392  1.00  0.00    +0.000 OA
ATOM     21  H   UNL     1       0.051  -2.535   0.449  1.00  0.00    +0.000 HD
ENDBRANCH  10  20
BRANCH   3  22
ATOM     22  O   UNL     1      -1.114   1.237   2.400  1.00  0.00    +0.000 OA
ATOM     23  H   UNL     1      -0.508   1.452   3.130  1.00  0.00    +0.000 HD
ENDBRANCH   3  22
BRANCH   1  24
ATOM     24  O   UNL     1       1.570  -1.508   0.961  1.00  0.00    +0.000 OA
ATOM     25  H   UNL     1       2.237  -2.096   0.553  1.00  0.00    +0.000 HD
ENDBRANCH   1  24
TORSDOF 4
