REMARK  Name = /srv/my_project/app/compsite/backup/Dave/CORINA_stuff/newPDBs/SANC00276.pdb
AUTHORGENERATED BY OPEN BABEL 2.3.2
REMARK  6 active torsions:
REMARK  status: ('A' for Active; 'I' for Inactive)
REMARK    1  A    between atoms: C_2  and  C_3
REMARK    2  A    between atoms: C_3  and  C_4
REMARK    3  A    between atoms: C_3  and  C_6
REMARK    4  A    between atoms: C_6  and  C_9
REMARK    5  A    between atoms: C_10  and  C_11
REMARK    6  A    between atoms: C_11  and  C_14
REMARK                            x       y       z     vdW  Elec       q    Type
REMARK                         _______ _______ _______ _____ _____    ______ ____
ROOT
ATOM      1  C   UNL     1       0.708   0.659   0.236  1.00  0.00    +0.000 C 
ATOM      2  C   UNL     1       1.474   0.155  -0.748  1.00  0.00    +0.000 C 
ENDROOT
BRANCH   2   3
ATOM      3  C   UNL     1       2.861  -0.334  -0.666  1.00  0.00    +0.000 C 
ATOM      4  C   UNL     1       3.413  -0.751  -1.823  1.00  0.00    +0.000 C 
ATOM      5 CL   UNL     1       4.998  -1.370  -2.030  1.00  0.00    +0.000 Cl
BRANCH   3   6
ATOM      6  C   UNL     1       3.632  -0.379   0.644  1.00  0.00    +0.000 C 
ATOM      7 CL   UNL     1       3.897   1.252   1.315  1.00  0.00    +0.000 Cl
ATOM      8 CL   UNL     1       2.847  -1.447   1.838  1.00  0.00    +0.000 Cl
ENDBRANCH   3   6
ENDBRANCH   2   3
BRANCH   1   9
ATOM      9  C   UNL     1      -0.728   1.164   0.150  1.00  0.00    +0.000 C 
ATOM     10 CL   UNL     1      -1.125   1.705  -1.529  1.00  0.00    +0.000 Cl
BRANCH   9  11
ATOM     11  C   UNL     1      -1.816   0.181   0.713  1.00  0.00    +0.000 C 
ATOM     12  C   UNL     1      -1.814  -1.170  -0.025  1.00  0.00    +0.000 C 
ATOM     13 CL   UNL     1      -1.436  -0.184   2.463  1.00  0.00    +0.000 Cl
BRANCH  11  15
ATOM     14  C   UNL     1      -4.325   0.462   0.170  1.00  0.00    +0.000 C 
ATOM     15  C   UNL     1      -3.188   0.857   0.761  1.00  0.00    +0.000 C 
ENDBRANCH  11  15
ENDBRANCH   9  11
ENDBRANCH   1   9
TORSDOF 5
