REMARK  Name = SANCDB_01019_minRM1.pdb
AUTHORGENERATED BY OPEN BABEL 2.3.2
REMARK  8 active torsions:
REMARK  status: ('A' for Active; 'I' for Inactive)
REMARK    1  A    between atoms: C_1  and  C_2
REMARK    2  A    between atoms: C_2  and  C_21
REMARK    3  A    between atoms: C_3  and  C_5
REMARK    4  A    between atoms: C_5  and  C_6
REMARK    5  A    between atoms: C_7  and  O_19
REMARK    6  A    between atoms: C_11  and  O_12
REMARK    7  A    between atoms: O_12  and  C_13
REMARK    8  A    between atoms: O_19  and  C_20
REMARK                            x       y       z     vdW  Elec       q    Type
REMARK                         _______ _______ _______ _____ _____    ______ ____
ROOT
ATOM      1  C   UNL     1       0.239   0.340   0.546  1.00  0.00    +0.000 A 
ATOM      2  C   UNL     1       0.635  -0.609   1.517  1.00  0.00    +0.000 A 
ATOM      3  C   UNL     1       1.983  -0.944   1.651  1.00  0.00    +0.000 A 
ATOM      4  C   UNL     1       2.931  -0.326   0.836  1.00  0.00    +0.000 A 
ATOM      5  C   UNL     1       2.581   0.612  -0.130  1.00  0.00    +0.000 A 
ATOM      6  C   UNL     1       1.221   0.913  -0.292  1.00  0.00    +0.000 A 
ATOM      7  C   UNL     1       3.650   1.241  -0.897  1.00  0.00    +0.000 A 
ATOM      8  C   UNL     1       4.921   0.885  -0.693  1.00  0.00    +0.000 A 
ATOM      9  C   UNL     1       5.304  -0.135   0.295  1.00  0.00    +0.000 A 
ATOM     10  O   UNL     1       6.477  -0.456   0.446  1.00  0.00    +0.000 OA
ATOM     11  O   UNL     1       4.277  -0.700   1.039  1.00  0.00    +0.000 OA
ENDROOT
BRANCH   6  12
ATOM     12  O   UNL     1       0.836   1.835  -1.236  1.00  0.00    +0.000 OA
ATOM     13  C   UNL     1       0.625   1.202  -2.502  1.00  0.00    +0.000 C 
ENDBRANCH   6  12
BRANCH   2  14
ATOM     14  O   UNL     1      -0.376  -1.146   2.274  1.00  0.00    +0.000 OA
ATOM     15  C   UNL     1      -0.015  -2.072   3.292  1.00  0.00    +0.000 C 
ENDBRANCH   2  14
BRANCH   1  16
ATOM     16  C   UNL     1      -1.222   0.728   0.407  1.00  0.00    +0.000 C 
BRANCH  16  19
ATOM     17  C   UNL     1      -4.157   1.194  -0.496  1.00  0.00    +0.000 C 
ATOM     18  C   UNL     1      -3.427  -0.072  -0.819  1.00  0.00    +0.000 C 
ATOM     19  C   UNL     1      -1.984  -0.290  -0.388  1.00  0.00    +0.000 C 
ATOM     20  O   UNL     1      -2.329   0.104  -1.726  1.00  0.00    +0.000 OA
ATOM     21  C   UNL     1      -4.274  -1.269  -1.122  1.00  0.00    +0.000 C 
ENDBRANCH  16  19
ENDBRANCH   1  16
TORSDOF 4
