REMARK  Name = SANCDB_00784_minRM1.pdb
AUTHORGENERATED BY OPEN BABEL 2.3.2
REMARK  4 active torsions:
REMARK  status: ('A' for Active; 'I' for Inactive)
REMARK    1  A    between atoms: C_1  and  C_2
REMARK    2  A    between atoms: C_7  and  O_8
REMARK    3  A    between atoms: C_7  and  C_9
REMARK    4  A    between atoms: C_9  and  O_10
REMARK                            x       y       z     vdW  Elec       q    Type
REMARK                         _______ _______ _______ _____ _____    ______ ____
ROOT
ATOM      1  C   UNL     1      -0.243   0.580   3.367  1.00  0.00    +0.000 C 
ATOM      2  C   UNL     1       0.797   1.119   2.437  1.00  0.00    +0.000 C 
ATOM      3  C   UNL     1       0.657   1.496   1.148  1.00  0.00    +0.000 C 
ATOM      4  C   UNL     1       1.831   1.997   0.340  1.00  0.00    +0.000 C 
ATOM      5  C   UNL     1       2.414   0.994  -0.654  1.00  0.00    +0.000 C 
ATOM      6  C   UNL     1       2.490   1.337  -1.957  1.00  0.00    +0.000 C 
ATOM      7  C   UNL     1       2.914  -0.341  -0.094  1.00  0.00    +0.000 C 
ATOM      8  C   UNL     1       1.750  -1.341   0.171  1.00  0.00    +0.000 C 
ATOM      9  O   UNL     1       1.718  -2.095   1.140  1.00  0.00    +0.000 OA
ATOM     10  O   UNL     1       0.850  -1.357  -0.854  1.00  0.00    +0.000 OA
ATOM     11  C   UNL     1      -0.226  -2.294  -0.748  1.00  0.00    +0.000 C 
ATOM     12  C   UNL     1      -1.496  -1.609  -0.377  1.00  0.00    +0.000 C 
ATOM     13  C   UNL     1      -2.213  -1.792   0.737  1.00  0.00    +0.000 C 
ATOM     14  C   UNL     1      -3.480  -1.007   0.698  1.00  0.00    +0.000 C 
ATOM     15  N   UNL     1      -3.561  -0.479  -0.678  1.00  0.00    +0.000 NA
ATOM     16  C   UNL     1      -2.227  -0.689  -1.302  1.00  0.00    +0.000 C 
ATOM     17  C   UNL     1      -1.651   0.703  -1.609  1.00  0.00    +0.000 C 
ATOM     18  O   UNL     1      -0.547   1.107  -0.778  1.00  0.00    +0.000 OA
ATOM     19  C   UNL     1      -0.685   1.510   0.500  1.00  0.00    +0.000 C 
ATOM     20  O   UNL     1      -1.717   1.827   1.064  1.00  0.00    +0.000 OA
ATOM     21  C   UNL     1      -2.858   1.627  -1.623  1.00  0.00    +0.000 C 
ATOM     22  C   UNL     1      -3.894   0.948  -0.734  1.00  0.00    +0.000 C 
ENDROOT
BRANCH   7  23
ATOM     23  O   UNL     1       3.647  -0.038   1.104  1.00  0.00    +0.000 OA
ATOM     24  H   UNL     1       4.152  -0.850   1.310  1.00  0.00    +0.000 HD
ENDBRANCH   7  23
BRANCH   7  25
ATOM     25  C   UNL     1       3.901  -1.119  -1.007  1.00  0.00    +0.000 C 
BRANCH  25  26
ATOM     26  O   UNL     1       4.581  -2.149  -0.267  1.00  0.00    +0.000 OA
ATOM     27  H   UNL     1       3.940  -2.855  -0.059  1.00  0.00    +0.000 HD
ENDBRANCH  25  26
ENDBRANCH   7  25
TORSDOF 3
