REMARK  Name = SANCDB_00943_minRM1.pdb
AUTHORGENERATED BY OPEN BABEL 2.3.2
REMARK  12 active torsions:
REMARK  status: ('A' for Active; 'I' for Inactive)
REMARK    1  A    between atoms: C_2  and  O_22
REMARK    2  A    between atoms: C_3  and  C_13
REMARK    3  A    between atoms: C_7  and  O_12
REMARK    4  A    between atoms: C_9  and  O_11
REMARK    5  A    between atoms: C_15  and  O_21
REMARK    6  A    between atoms: C_16  and  O_20
REMARK    7  A    between atoms: C_17  and  O_19
REMARK    8  A    between atoms: O_22  and  C_23
REMARK    9  A    between atoms: C_23  and  C_25
REMARK   10  A    between atoms: C_27  and  O_33
REMARK   11  A    between atoms: C_28  and  O_32
REMARK   12  A    between atoms: C_29  and  O_31
REMARK                            x       y       z     vdW  Elec       q    Type
REMARK                         _______ _______ _______ _____ _____    ______ ____
ROOT
ATOM      1  C   UNL     1      -0.254  -2.483   0.476  1.00  0.00    +0.000 C 
ATOM      2  C   UNL     1      -0.301  -1.092  -0.160  1.00  0.00    +0.000 C 
ATOM      3  C   UNL     1      -1.658  -0.446   0.165  1.00  0.00    +0.000 C 
ATOM      4  O   UNL     1      -2.755  -1.217  -0.338  1.00  0.00    +0.000 OA
ATOM      5  C   UNL     1      -2.716  -2.550  -0.034  1.00  0.00    +0.000 A 
ATOM      6  C   UNL     1      -3.929  -3.228  -0.171  1.00  0.00    +0.000 A 
ATOM      7  C   UNL     1      -3.998  -4.583   0.121  1.00  0.00    +0.000 A 
ATOM      8  C   UNL     1      -2.869  -5.273   0.542  1.00  0.00    +0.000 A 
ATOM      9  C   UNL     1      -1.656  -4.594   0.658  1.00  0.00    +0.000 A 
ATOM     10  C   UNL     1      -1.553  -3.227   0.359  1.00  0.00    +0.000 A 
ENDROOT
BRANCH   3  11
ATOM     11  C   UNL     1      -1.754   0.954  -0.433  1.00  0.00    +0.000 A 
ATOM     12  C   UNL     1      -2.037   1.138  -1.800  1.00  0.00    +0.000 A 
ATOM     13  C   UNL     1      -2.080   2.420  -2.334  1.00  0.00    +0.000 A 
ATOM     14  C   UNL     1      -1.841   3.525  -1.530  1.00  0.00    +0.000 A 
ATOM     15  C   UNL     1      -1.555   3.360  -0.181  1.00  0.00    +0.000 A 
ATOM     16  C   UNL     1      -1.513   2.084   0.376  1.00  0.00    +0.000 A 
BRANCH  15  17
ATOM     17  O   UNL     1      -1.314   4.484   0.559  1.00  0.00    +0.000 OA
ATOM     18  H   UNL     1      -1.081   4.211   1.464  1.00  0.00    +0.000 HD
ENDBRANCH  15  17
BRANCH  14  19
ATOM     19  O   UNL     1      -1.885   4.776  -2.085  1.00  0.00    +0.000 OA
ATOM     20  H   UNL     1      -1.692   5.374  -1.334  1.00  0.00    +0.000 HD
ENDBRANCH  14  19
BRANCH  13  21
ATOM     21  O   UNL     1      -2.354   2.585  -3.661  1.00  0.00    +0.000 OA
ATOM     22  H   UNL     1      -2.336   3.554  -3.795  1.00  0.00    +0.000 HD
ENDBRANCH  13  21
ENDBRANCH   3  11
BRANCH   9  23
ATOM     23  O   UNL     1      -0.598  -5.350   1.080  1.00  0.00    +0.000 OA
ATOM     24  H   UNL     1       0.218  -4.826   1.062  1.00  0.00    +0.000 HD
ENDBRANCH   9  23
BRANCH   7  25
ATOM     25  O   UNL     1      -5.203  -5.206  -0.015  1.00  0.00    +0.000 OA
ATOM     26  H   UNL     1      -5.091  -6.147   0.199  1.00  0.00    +0.000 HD
ENDBRANCH   7  25
BRANCH   2  27
ATOM     27  O   UNL     1       0.751  -0.272   0.398  1.00  0.00    +0.000 OA
BRANCH  27  28
ATOM     28  C   UNL     1       1.989  -0.454  -0.117  1.00  0.00    +0.000 C 
ATOM     29  O   UNL     1       2.308  -1.321  -0.913  1.00  0.00    +0.000 OA
BRANCH  28  30
ATOM     30  C   UNL     1       2.931   0.559   0.428  1.00  0.00    +0.000 A 
ATOM     31  C   UNL     1       4.268   0.518   0.000  1.00  0.00    +0.000 A 
ATOM     32  C   UNL     1       5.175   1.452   0.490  1.00  0.00    +0.000 A 
ATOM     33  C   UNL     1       4.759   2.444   1.368  1.00  0.00    +0.000 A 
ATOM     34  C   UNL     1       3.440   2.476   1.803  1.00  0.00    +0.000 A 
ATOM     35  C   UNL     1       2.520   1.541   1.345  1.00  0.00    +0.000 A 
BRANCH  34  36
ATOM     36  O   UNL     1       3.025   3.441   2.675  1.00  0.00    +0.000 OA
ATOM     37  H   UNL     1       3.823   3.975   2.861  1.00  0.00    +0.000 HD
ENDBRANCH  34  36
BRANCH  33  38
ATOM     38  O   UNL     1       5.614   3.423   1.793  1.00  0.00    +0.000 OA
ATOM     39  H   UNL     1       6.262   3.544   1.072  1.00  0.00    +0.000 HD
ENDBRANCH  33  38
BRANCH  32  40
ATOM     40  O   UNL     1       6.481   1.367   0.108  1.00  0.00    +0.000 OA
ATOM     41  H   UNL     1       7.018   1.478   0.914  1.00  0.00    +0.000 HD
ENDBRANCH  32  40
ENDBRANCH  28  30
ENDBRANCH  27  28
ENDBRANCH   2  27
TORSDOF 12
