REMARK  Name = SANCDB_00866_minRM1.pdb
AUTHORGENERATED BY OPEN BABEL 2.3.2
REMARK  11 active torsions:
REMARK  status: ('A' for Active; 'I' for Inactive)
REMARK    1  A    between atoms: C_3  and  O_32
REMARK    2  A    between atoms: C_4  and  O_31
REMARK    3  A    between atoms: C_6  and  C_7
REMARK    4  A    between atoms: C_15  and  O_30
REMARK    5  A    between atoms: C_16  and  C_19
REMARK    6  A    between atoms: C_17  and  O_18
REMARK    7  A    between atoms: C_20  and  O_29
REMARK    8  A    between atoms: C_21  and  O_28
REMARK    9  A    between atoms: C_22  and  O_27
REMARK   10  A    between atoms: C_23  and  C_25
REMARK   11  A    between atoms: C_25  and  O_26
REMARK                            x       y       z     vdW  Elec       q    Type
REMARK                         _______ _______ _______ _____ _____    ______ ____
ROOT
ATOM      1  C   UNL     1       3.574   0.231  -0.936  1.00  0.00    +0.000 A 
ATOM      2  C   UNL     1       3.091   1.142  -1.793  1.00  0.00    +0.000 A 
ATOM      3  C   UNL     1       1.660   1.474  -1.747  1.00  0.00    +0.000 A 
ATOM      4  O   UNL     1       1.178   2.313  -2.500  1.00  0.00    +0.000 OA
ATOM      5  C   UNL     1       0.835   0.762  -0.761  1.00  0.00    +0.000 A 
ATOM      6  C   UNL     1       1.462  -0.169   0.062  1.00  0.00    +0.000 A 
ATOM      7  O   UNL     1       2.804  -0.447  -0.005  1.00  0.00    +0.000 OA
ATOM      8  C   UNL     1       0.722  -0.863   1.013  1.00  0.00    +0.000 A 
ATOM      9  C   UNL     1      -0.646  -0.622   1.130  1.00  0.00    +0.000 A 
ATOM     10  C   UNL     1      -1.316   0.296   0.302  1.00  0.00    +0.000 A 
ATOM     11  C   UNL     1      -0.544   0.998  -0.642  1.00  0.00    +0.000 A 
ENDROOT
BRANCH   1  17
ATOM     12  C   UNL     1       5.354  -1.511  -0.855  1.00  0.00    +0.000 A 
ATOM     13  C   UNL     1       6.696  -1.902  -0.844  1.00  0.00    +0.000 A 
ATOM     14  C   UNL     1       7.683  -0.932  -0.906  1.00  0.00    +0.000 A 
ATOM     15  C   UNL     1       7.350   0.417  -0.975  1.00  0.00    +0.000 A 
ATOM     16  C   UNL     1       6.017   0.817  -0.988  1.00  0.00    +0.000 A 
ATOM     17  C   UNL     1       4.999  -0.152  -0.936  1.00  0.00    +0.000 A 
BRANCH  15  18
ATOM     18  O   UNL     1       8.377   1.321  -1.024  1.00  0.00    +0.000 OA
ATOM     19  H   UNL     1       7.998   2.216  -1.054  1.00  0.00    +0.000 HD
ENDBRANCH  15  18
BRANCH  14  20
ATOM     20  O   UNL     1       8.993  -1.313  -0.894  1.00  0.00    +0.000 OA
ATOM     21  H   UNL     1       9.494  -0.474  -0.941  1.00  0.00    +0.000 HD
ENDBRANCH  14  20
ENDBRANCH   1  17
BRANCH  10  22
ATOM     22  C   UNL     1      -2.828   0.485   0.347  1.00  0.00    +0.000 C 
ATOM     23  C   UNL     1      -3.558  -0.615  -0.448  1.00  0.00    +0.000 C 
ATOM     24  C   UNL     1      -5.077  -0.360  -0.433  1.00  0.00    +0.000 C 
ATOM     25  C   UNL     1      -5.544   0.538   0.723  1.00  0.00    +0.000 C 
ATOM     26  C   UNL     1      -4.655   0.439   1.978  1.00  0.00    +0.000 C 
ATOM     27  O   UNL     1      -3.234   0.410   1.735  1.00  0.00    +0.000 OA
BRANCH  25  28
ATOM     28  O   UNL     1      -5.525   1.900   0.258  1.00  0.00    +0.000 OA
ATOM     29  H   UNL     1      -5.970   2.457   0.919  1.00  0.00    +0.000 HD
ENDBRANCH  25  28
BRANCH  24  30
ATOM     30  O   UNL     1      -5.761  -1.626  -0.407  1.00  0.00    +0.000 OA
ATOM     31  H   UNL     1      -5.518  -2.051   0.445  1.00  0.00    +0.000 HD
ENDBRANCH  24  30
BRANCH  23  32
ATOM     32  O   UNL     1      -3.120  -0.727  -1.809  1.00  0.00    +0.000 OA
ATOM     33  H   UNL     1      -3.701  -1.386  -2.230  1.00  0.00    +0.000 HD
ENDBRANCH  23  32
BRANCH  26  34
ATOM     34  C   UNL     1      -5.007  -0.779   2.851  1.00  0.00    +0.000 C 
BRANCH  34  35
ATOM     35  O   UNL     1      -4.908  -1.996   2.112  1.00  0.00    +0.000 OA
ATOM     36  H   UNL     1      -4.892  -2.720   2.767  1.00  0.00    +0.000 HD
ENDBRANCH  34  35
ENDBRANCH  26  34
ENDBRANCH  10  22
BRANCH  11  37
ATOM     37  O   UNL     1      -1.180   1.921  -1.435  1.00  0.00    +0.000 OA
ATOM     38  H   UNL     1      -0.533   2.287  -2.078  1.00  0.00    +0.000 HD
ENDBRANCH  11  37
BRANCH   9  39
ATOM     39  O   UNL     1      -1.298  -1.319   2.111  1.00  0.00    +0.000 OA
ATOM     40  H   UNL     1      -2.139  -0.842   2.266  1.00  0.00    +0.000 HD
ENDBRANCH   9  39
TORSDOF 11
