REMARK  Name = /srv/my_project/app/compsite/backup/Dave/CORINA_stuff/newPDBs/SANC00644.pdb
AUTHORGENERATED BY OPEN BABEL 2.3.2
REMARK  7 active torsions:
REMARK  status: ('A' for Active; 'I' for Inactive)
REMARK    1  A    between atoms: C_1  and  N_2
REMARK    2  A    between atoms: C_6  and  O_35
REMARK    3  A    between atoms: N_18  and  C_23
REMARK    4  A    between atoms: C_23  and  C_24
REMARK    5  A    between atoms: C_24  and  C_25
REMARK    6  A    between atoms: C_28  and  O_31
REMARK    7  A    between atoms: O_35  and  C_36
REMARK                            x       y       z     vdW  Elec       q    Type
REMARK                         _______ _______ _______ _____ _____    ______ ____
ROOT
ATOM      1  C   UNL     1      -1.615  -2.930  -1.540  1.00  0.00    +0.000 C 
ATOM      2  N   UNL     1      -1.304  -1.947  -0.524  1.00  0.00    +0.000 N 
ATOM      3  C   UNL     1      -1.974  -0.657  -0.421  1.00  0.00    +0.000 C 
ATOM      4  C   UNL     1      -3.498  -0.797  -0.340  1.00  0.00    +0.000 C 
ATOM      5  C   UNL     1      -3.961  -1.536   0.925  1.00  0.00    +0.000 C 
ATOM      6  C   UNL     1      -3.180  -1.164   2.152  1.00  0.00    +0.000 C 
ATOM      7  C   UNL     1      -2.023  -0.483   2.135  1.00  0.00    +0.000 C 
ATOM      8  C   UNL     1      -1.341  -0.003   0.851  1.00  0.00    +0.000 C 
ATOM      9  C   UNL     1      -1.386   1.530   0.801  1.00  0.00    +0.000 A 
ATOM     10  C   UNL     1      -2.601   2.230   0.978  1.00  0.00    +0.000 A 
ATOM     11  C   UNL     1      -2.594   3.607   0.920  1.00  0.00    +0.000 A 
ATOM     12  C   UNL     1      -1.440   4.313   0.708  1.00  0.00    +0.000 A 
ATOM     13  C   UNL     1      -0.230   3.679   0.545  1.00  0.00    +0.000 A 
ATOM     14  C   UNL     1      -0.197   2.270   0.584  1.00  0.00    +0.000 A 
ATOM     15  C   UNL     1       1.143   1.584   0.468  1.00  0.00    +0.000 C 
ATOM     16  N   UNL     1       1.053   0.222  -0.071  1.00  0.00    +0.000 NA
ATOM     17  C   UNL     1       0.126  -0.573   0.799  1.00  0.00    +0.000 C 
ATOM     18  C   UNL     1      -0.111  -1.965   0.185  1.00  0.00    +0.000 C 
ATOM     19  O   UNL     1       0.650  -2.920   0.269  1.00  0.00    +0.000 OA
ATOM     20  O   UNL     1      -1.644   5.657   0.696  1.00  0.00    +0.000 OA
ATOM     21  C   UNL     1      -3.068   5.714   0.922  1.00  0.00    +0.000 C 
ATOM     22  O   UNL     1      -3.678   4.415   1.070  1.00  0.00    +0.000 OA
ENDROOT
BRANCH   5  23
ATOM     23  O   UNL     1      -5.326  -1.211   1.201  1.00  0.00    +0.000 OA
ATOM     24  C   UNL     1      -6.247  -1.972   0.432  1.00  0.00    +0.000 C 
ENDBRANCH   5  23
BRANCH  16  25
ATOM     25  C   UNL     1       2.398  -0.404  -0.137  1.00  0.00    +0.000 C 
BRANCH  25  26
ATOM     26  C   UNL     1       3.390   0.314  -1.074  1.00  0.00    +0.000 C 
BRANCH  26  27
ATOM     27  C   UNL     1       4.683  -0.455  -1.220  1.00  0.00    +0.000 A 
ATOM     28  C   UNL     1       5.761  -0.207  -0.357  1.00  0.00    +0.000 A 
ATOM     29  C   UNL     1       6.951  -0.929  -0.484  1.00  0.00    +0.000 A 
ATOM     30  C   UNL     1       7.059  -1.903  -1.472  1.00  0.00    +0.000 A 
ATOM     31  C   UNL     1       5.999  -2.166  -2.330  1.00  0.00    +0.000 A 
ATOM     32  C   UNL     1       4.811  -1.445  -2.204  1.00  0.00    +0.000 A 
BRANCH  30  33
ATOM     33  O   UNL     1       8.201  -2.630  -1.630  1.00  0.00    +0.000 OA
ATOM     34  H   UNL     1       8.840  -2.351  -0.955  1.00  0.00    +0.000 HD
ENDBRANCH  30  33
ENDBRANCH  26  27
ENDBRANCH  25  26
ENDBRANCH  16  25
TORSDOF 5
