REMARK  Name = /srv/my_project/app/compsite/backup/Dave/CORINA_stuff/newPDBs/SANC00109.pdb
AUTHORGENERATED BY OPEN BABEL 2.3.2
REMARK  7 active torsions:
REMARK  status: ('A' for Active; 'I' for Inactive)
REMARK    1  A    between atoms: C_3  and  O_5
REMARK    2  A    between atoms: C_11  and  C_13
REMARK    3  A    between atoms: C_13  and  O_14
REMARK    4  A    between atoms: O_14  and  C_15
REMARK    5  A    between atoms: C_15  and  C_17
REMARK    6  A    between atoms: C_17  and  C_18
REMARK    7  A    between atoms: C_19  and  C_20
REMARK                            x       y       z     vdW  Elec       q    Type
REMARK                         _______ _______ _______ _____ _____    ______ ____
ROOT
ATOM      1  C   UNL     1      -1.999   0.029   0.945  1.00  0.00    +0.000 C 
ATOM      2  C   UNL     1      -2.670   1.419   0.859  1.00  0.00    +0.000 C 
ATOM      3  C   UNL     1      -3.864   1.231  -0.065  1.00  0.00    +0.000 C 
ATOM      4  C   UNL     1      -4.151  -0.256   0.042  1.00  0.00    +0.000 C 
ATOM      5  N   UNL     1      -2.837  -0.903   0.137  1.00  0.00    +0.000 NA
ATOM      6  C   UNL     1      -2.190  -1.080  -1.175  1.00  0.00    +0.000 C 
ATOM      7  C   UNL     1      -0.942  -0.211  -1.181  1.00  0.00    +0.000 C 
ATOM      8  C   UNL     1      -0.616  -0.024   0.296  1.00  0.00    +0.000 C 
ENDROOT
BRANCH   2   9
ATOM      9  O   UNL     1      -3.138   1.808   2.151  1.00  0.00    +0.000 OA
ATOM     10  H   UNL     1      -3.545   2.687   2.063  1.00  0.00    +0.000 HD
ENDBRANCH   2   9
BRANCH   8  11
ATOM     11  C   UNL     1       0.215  -1.189   0.854  1.00  0.00    +0.000 C 
BRANCH  11  12
ATOM     12  O   UNL     1       1.493  -1.267   0.198  1.00  0.00    +0.000 OA
BRANCH  12  13
ATOM     13  C   UNL     1       2.455  -0.440   0.679  1.00  0.00    +0.000 C 
ATOM     14  O   UNL     1       2.328   0.356   1.596  1.00  0.00    +0.000 OA
BRANCH  13  15
ATOM     15  C   UNL     1       3.710  -0.653  -0.094  1.00  0.00    +0.000 C 
ATOM     16  C   UNL     1       4.042  -2.073  -0.447  1.00  0.00    +0.000 C 
ATOM     17  C   UNL     1       4.526   0.373  -0.407  1.00  0.00    +0.000 C 
ATOM     18  C   UNL     1       4.312   1.830  -0.141  1.00  0.00    +0.000 C 
ENDBRANCH  13  15
ENDBRANCH  12  13
ENDBRANCH  11  12
ENDBRANCH   8  11
TORSDOF 5
