REMARK  Name = SANCDB_00947_minRM1.pdb
AUTHORGENERATED BY OPEN BABEL 2.3.2
REMARK  3 active torsions:
REMARK  status: ('A' for Active; 'I' for Inactive)
REMARK    1  A    between atoms: C_3  and  C_8
REMARK    2  A    between atoms: C_5  and  O_7
REMARK    3  A    between atoms: C_8  and  O_10
REMARK                            x       y       z     vdW  Elec       q    Type
REMARK                         _______ _______ _______ _____ _____    ______ ____
ROOT
ATOM      1  C   UNL     1       0.843   1.245  -1.202  1.00  0.00    +0.000 A 
ATOM      2  C   UNL     1      -0.496   0.901  -0.998  1.00  0.00    +0.000 A 
ATOM      3  C   UNL     1      -0.839  -0.058  -0.036  1.00  0.00    +0.000 A 
ATOM      4  C   UNL     1       0.165  -0.672   0.720  1.00  0.00    +0.000 A 
ATOM      5  C   UNL     1       1.494  -0.321   0.507  1.00  0.00    +0.000 A 
ATOM      6  C   UNL     1       1.843   0.632  -0.447  1.00  0.00    +0.000 A 
ENDROOT
BRANCH   5   7
ATOM      7  O   UNL     1       2.443  -0.942   1.266  1.00  0.00    +0.000 OA
ATOM      8  H   UNL     1       3.318  -0.604   1.013  1.00  0.00    +0.000 HD
ENDBRANCH   5   7
BRANCH   3   9
ATOM      9  C   UNL     1      -2.272  -0.389   0.144  1.00  0.00    +0.000 C 
ATOM     10  O   UNL     1      -3.199   0.101  -0.474  1.00  0.00    +0.000 OA
BRANCH   9  11
ATOM     11  O   UNL     1      -2.481  -1.320   1.092  1.00  0.00    +0.000 OA
ATOM     12  H   UNL     1      -3.454  -1.435   1.100  1.00  0.00    +0.000 HD
ENDBRANCH   9  11
ENDBRANCH   3   9
TORSDOF 3
