REMARK  Name = /srv/my_project/app/compsite/backup/Dave/CORINA_stuff/newPDBs/SANC00480.pdb
AUTHORGENERATED BY OPEN BABEL 2.3.2
REMARK  15 active torsions:
REMARK  status: ('A' for Active; 'I' for Inactive)
REMARK    1  A    between atoms: C_1  and  C_2
REMARK    2  A    between atoms: C_14  and  O_21
REMARK    3  A    between atoms: C_17  and  C_19
REMARK    4  A    between atoms: C_17  and  C_20
REMARK    5  A    between atoms: C_25  and  O_80
REMARK    6  A    between atoms: C_32  and  C_79
REMARK    7  A    between atoms: C_39  and  C_75
REMARK    8  A    between atoms: C_50  and  O_74
REMARK    9  A    between atoms: C_52  and  C_73
REMARK   10  A    between atoms: C_57  and  O_72
REMARK   11  A    between atoms: C_58  and  C_71
REMARK   12  A    between atoms: C_62  and  O_70
REMARK   13  A    between atoms: C_65  and  C_67
REMARK   14  A    between atoms: C_65  and  C_68
REMARK   15  A    between atoms: C_68  and  O_69
REMARK                            x       y       z     vdW  Elec       q    Type
REMARK                         _______ _______ _______ _____ _____    ______ ____
ROOT
ATOM      1  C   UNL     1      11.483   2.602  -1.442  1.00  0.00    +0.000 C 
ATOM      2  C   UNL     1      10.540   1.768  -0.565  1.00  0.00    +0.000 C 
ATOM      3  C   UNL     1       9.329   1.266  -1.390  1.00  0.00    +0.000 C 
ATOM      4  C   UNL     1       9.655   0.679  -2.783  1.00  0.00    +0.000 C 
ATOM      5  C   UNL     1       8.496  -0.214  -3.085  1.00  0.00    +0.000 C 
ATOM      6  C   UNL     1       7.769  -0.546  -1.814  1.00  0.00    +0.000 C 
ATOM      7  C   UNL     1       8.463   0.184  -0.664  1.00  0.00    +0.000 C 
ATOM      8  C   UNL     1       9.305  -0.773   0.187  1.00  0.00    +0.000 C 
ATOM      9  O   UNL     1      10.274  -0.100   0.983  1.00  0.00    +0.000 OA
ATOM     10  C   UNL     1      11.246   0.630   0.213  1.00  0.00    +0.000 C 
ATOM     11  C   UNL     1      12.331   1.091   1.232  1.00  0.00    +0.000 C 
ATOM     12  C   UNL     1      13.632   0.751   0.541  1.00  0.00    +0.000 C 
ATOM     13  C   UNL     1      13.263  -0.478  -0.275  1.00  0.00    +0.000 C 
ATOM     14  O   UNL     1      11.913  -0.258  -0.709  1.00  0.00    +0.000 OA
ATOM     15  C   UNL     1      14.147  -0.623  -1.511  1.00  0.00    +0.000 C 
ATOM     16  C   UNL     1      13.307  -1.768   0.550  1.00  0.00    +0.000 C 
ATOM     17  C   UNL     1       7.454   0.883   0.248  1.00  0.00    +0.000 C 
ATOM     18  O   UNL     1       7.695   1.940   0.835  1.00  0.00    +0.000 OA
ATOM     19  C   UNL     1       6.126   0.204   0.474  1.00  0.00    +0.000 C 
ATOM     20  C   UNL     1       5.447  -0.078  -0.873  1.00  0.00    +0.000 C 
ATOM     21  C   UNL     1       6.342  -1.052  -1.694  1.00  0.00    +0.000 C 
ATOM     22  C   UNL     1       5.709  -1.362  -3.063  1.00  0.00    +0.000 C 
ATOM     23  C   UNL     1       4.286  -1.895  -2.942  1.00  0.00    +0.000 C 
ATOM     24  C   UNL     1       3.391  -0.947  -2.136  1.00  0.00    +0.000 C 
ATOM     25  C   UNL     1       3.970  -0.644  -0.716  1.00  0.00    +0.000 C 
ATOM     26  C   UNL     1       3.030   0.417  -0.067  1.00  0.00    +0.000 C 
ATOM     27  C   UNL     1       1.559   0.117  -0.178  1.00  0.00    +0.000 A 
ATOM     28  N   UNL     1       0.745   0.765   0.692  1.00  0.00    +0.000 NA
ATOM     29  C   UNL     1      -0.587   0.538   0.567  1.00  0.00    +0.000 A 
ATOM     30  C   UNL     1      -1.092  -0.331  -0.398  1.00  0.00    +0.000 A 
ATOM     31  C   UNL     1      -2.570  -0.564  -0.568  1.00  0.00    +0.000 C 
ATOM     32  C   UNL     1      -3.441  -0.180   0.661  1.00  0.00    +0.000 C 
ATOM     33  C   UNL     1      -2.958   1.223   1.149  1.00  0.00    +0.000 C 
ATOM     34  C   UNL     1      -1.479   1.223   1.563  1.00  0.00    +0.000 C 
ATOM     35  C   UNL     1      -3.833   1.794   2.272  1.00  0.00    +0.000 C 
ATOM     36  C   UNL     1      -5.295   1.884   1.844  1.00  0.00    +0.000 C 
ATOM     37  C   UNL     1      -5.840   0.526   1.377  1.00  0.00    +0.000 C 
ATOM     38  C   UNL     1      -4.952  -0.056   0.232  1.00  0.00    +0.000 C 
ATOM     39  C   UNL     1      -5.549  -1.357  -0.374  1.00  0.00    +0.000 C 
ATOM     40  C   UNL     1      -7.041  -1.221  -0.746  1.00  0.00    +0.000 C 
ATOM     41  C   UNL     1      -7.908  -0.736   0.449  1.00  0.00    +0.000 C 
ATOM     42  C   UNL     1      -7.265   0.569   0.888  1.00  0.00    +0.000 C 
ATOM     43  C   UNL     1      -8.025   1.628   0.579  1.00  0.00    +0.000 C 
ATOM     44  C   UNL     1      -9.251   1.238  -0.175  1.00  0.00    +0.000 C 
ATOM     45  C   UNL     1      -9.365  -0.295   0.026  1.00  0.00    +0.000 C 
ATOM     46  C   UNL     1     -10.499  -0.371   1.059  1.00  0.00    +0.000 C 
ATOM     47  C   UNL     1     -11.343   0.869   0.726  1.00  0.00    +0.000 C 
ATOM     48  O   UNL     1     -10.387   1.889   0.394  1.00  0.00    +0.000 OA
ATOM     49  C   UNL     1     -12.369   0.770  -0.430  1.00  0.00    +0.000 C 
ATOM     50  C   UNL     1     -13.687   0.592   0.289  1.00  0.00    +0.000 C 
ATOM     51  C   UNL     1     -13.476   1.349   1.601  1.00  0.00    +0.000 C 
ATOM     52  O   UNL     1     -12.068   1.247   1.911  1.00  0.00    +0.000 OA
ATOM     53  C   UNL     1     -13.828   2.838   1.499  1.00  0.00    +0.000 C 
ATOM     54  C   UNL     1     -11.286  -1.677   1.106  1.00  0.00    +0.000 C 
ATOM     55  C   UNL     1      -7.927  -1.795   1.570  1.00  0.00    +0.000 C 
ATOM     56  C   UNL     1      -3.259  -1.266   1.753  1.00  0.00    +0.000 C 
ATOM     57  N   UNL     1      -0.278  -0.973  -1.273  1.00  0.00    +0.000 NA
ATOM     58  C   UNL     1       1.052  -0.734  -1.157  1.00  0.00    +0.000 A 
ATOM     59  C   UNL     1       1.953  -1.492  -2.090  1.00  0.00    +0.000 C 
ATOM     60  C   UNL     1       3.958  -1.909   0.188  1.00  0.00    +0.000 C 
ATOM     61  O   UNL     1       8.603  -1.508  -2.506  1.00  0.00    +0.000 OA
ENDROOT
BRANCH  11  62
ATOM     62  O   UNL     1      12.293   2.463   1.602  1.00  0.00    +0.000 OA
ATOM     63  H   UNL     1      12.923   2.585   2.333  1.00  0.00    +0.000 HD
ENDBRANCH  11  62
BRANCH  49  64
ATOM     64  O   UNL     1     -12.446   1.989  -1.187  1.00  0.00    +0.000 OA
ATOM     65  H   UNL     1     -11.675   2.524  -0.905  1.00  0.00    +0.000 HD
ENDBRANCH  49  64
BRANCH  45  66
ATOM     66  O   UNL     1      -9.790  -0.916  -1.191  1.00  0.00    +0.000 OA
ATOM     67  H   UNL     1      -9.340  -1.787  -1.250  1.00  0.00    +0.000 HD
ENDBRANCH  45  66
BRANCH  40  68
ATOM     68  O   UNL     1      -7.540  -2.477  -1.217  1.00  0.00    +0.000 OA
ATOM     69  H   UNL     1      -6.942  -2.778  -1.926  1.00  0.00    +0.000 HD
ENDBRANCH  40  68
BRANCH  20  70
ATOM     70  O   UNL     1       5.377   1.149  -1.624  1.00  0.00    +0.000 OA
ATOM     71  H   UNL     1       5.200   1.897  -1.023  1.00  0.00    +0.000 HD
ENDBRANCH  20  70
BRANCH  51  72
ATOM     72  C   UNL     1     -14.257   0.693   2.754  1.00  0.00    +0.000 C 
BRANCH  72  73
ATOM     73  O   UNL     1     -13.935   1.306   4.002  1.00  0.00    +0.000 OA
ATOM     74  H   UNL     1     -12.969   1.456   3.976  1.00  0.00    +0.000 HD
ENDBRANCH  72  73
ENDBRANCH  51  72
TORSDOF 7
