REMARK  Name = SANCDB_00730_minRM1.pdb
AUTHORGENERATED BY OPEN BABEL 2.3.2
REMARK  7 active torsions:
REMARK  status: ('A' for Active; 'I' for Inactive)
REMARK    1  A    between atoms: C_2  and  C_3
REMARK    2  A    between atoms: C_2  and  C_4
REMARK    3  A    between atoms: C_4  and  C_6
REMARK    4  A    between atoms: C_6  and  C_7
REMARK    5  A    between atoms: C_7  and  C_9
REMARK    6  A    between atoms: C_9  and  C_10
REMARK    7  A    between atoms: C_11  and  C_12
REMARK                            x       y       z     vdW  Elec       q    Type
REMARK                         _______ _______ _______ _____ _____    ______ ____
ROOT
ATOM      1  C   UNL     1       0.367  -0.539  -0.393  1.00  0.00    +0.000 C 
ATOM      2 BR   UNL     1       0.764  -1.539  -2.042  1.00  0.00    +0.000 Br
ENDROOT
BRANCH   1   3
ATOM      3  C   UNL     1       1.709  -0.333   0.308  1.00  0.00    +0.000 C 
ATOM      4  C   UNL     1       2.107  -1.486   1.201  1.00  0.00    +0.000 C 
ATOM      5  C   UNL     1       2.448   0.792   0.168  1.00  0.00    +0.000 C 
BRANCH   5   6
ATOM      6  C   UNL     1       3.779   1.125   0.780  1.00  0.00    +0.000 C 
ATOM      7 CL   UNL     1       3.552   2.395   2.003  1.00  0.00    +0.000 Cl
ATOM      8 CL   UNL     1       4.889   1.694  -0.490  1.00  0.00    +0.000 Cl
ENDBRANCH   5   6
ENDBRANCH   1   3
BRANCH   1   9
ATOM      9  C   UNL     1      -0.424   0.730  -0.747  1.00  0.00    +0.000 C 
BRANCH   9  10
ATOM     10  C   UNL     1      -1.872   0.452  -1.175  1.00  0.00    +0.000 C 
ATOM     11 BR   UNL     1      -2.719   2.160  -1.667  1.00  0.00    +0.000 Br
BRANCH  10  13
ATOM     12  C   UNL     1      -3.450  -1.335  -0.457  1.00  0.00    +0.000 C 
ATOM     13  C   UNL     1      -2.757  -0.224  -0.147  1.00  0.00    +0.000 C 
ATOM     14  C   UNL     1      -2.826   0.355   1.242  1.00  0.00    +0.000 C 
ENDBRANCH  10  13
ENDBRANCH   9  10
ENDBRANCH   1   9
TORSDOF 5
