REMARK  Name = /srv/my_project/app/compsite/backup/Dave/CORINA_stuff/newPDBs/SANC00685.pdb
AUTHORGENERATED BY OPEN BABEL 2.3.2
REMARK  22 active torsions:
REMARK  status: ('A' for Active; 'I' for Inactive)
REMARK    1  A    between atoms: C_2  and  O_3
REMARK    2  A    between atoms: O_3  and  C_4
REMARK    3  A    between atoms: C_6  and  C_8
REMARK    4  A    between atoms: C_25  and  O_27
REMARK    5  A    between atoms: C_29  and  O_31
REMARK    6  A    between atoms: O_31  and  C_32
REMARK    7  A    between atoms: C_36  and  O_38
REMARK    8  A    between atoms: C_39  and  O_41
REMARK    9  A    between atoms: C_42  and  O_44
REMARK   10  A    between atoms: O_44  and  C_45
REMARK   11  A    between atoms: C_48  and  C_50
REMARK   12  A    between atoms: C_51  and  O_53
REMARK   13  A    between atoms: C_54  and  O_56
REMARK   14  A    between atoms: C_57  and  O_59
REMARK   15  A    between atoms: C_60  and  C_61
REMARK   16  A    between atoms: C_66  and  C_67
REMARK   17  A    between atoms: C_70  and  C_72
REMARK   18  A    between atoms: C_73  and  O_75
REMARK   19  A    between atoms: C_77  and  C_79
REMARK   20  A    between atoms: C_80  and  O_82
REMARK   21  A    between atoms: C_83  and  O_85
REMARK   22  A    between atoms: C_86  and  O_88
REMARK                            x       y       z     vdW  Elec       q    Type
REMARK                         _______ _______ _______ _____ _____    ______ ____
ROOT
ATOM      1  C   UNL     1       5.965  -0.901   3.686  1.00  0.00    +0.000 C 
ATOM      2  C   UNL     1       6.226   0.250   4.678  1.00  0.00    +0.000 C 
ATOM      3  C   UNL     1       7.713   0.578   4.812  1.00  0.00    +0.000 C 
ATOM      4  C   UNL     1       5.435   1.488   4.243  1.00  0.00    +0.000 C 
ATOM      5  O   UNL     1       4.033   1.216   4.171  1.00  0.00    +0.000 OA
ATOM      6  C   UNL     1       3.697   0.170   3.242  1.00  0.00    +0.000 C 
ATOM      7  O   UNL     1       4.020   0.580   1.900  1.00  0.00    +0.000 OA
ATOM      8  C   UNL     1       3.031   1.513   1.528  1.00  0.00    +0.000 C 
ATOM      9  C   UNL     1       2.651   1.683   0.053  1.00  0.00    +0.000 C 
ATOM     10  O   UNL     1       3.437   1.862  -0.866  1.00  0.00    +0.000 OA
ATOM     11  C   UNL     1       1.144   1.650  -0.072  1.00  0.00    +0.000 C 
ATOM     12  C   UNL     1       0.439   1.446  -1.413  1.00  0.00    +0.000 C 
ATOM     13  C   UNL     1       0.807   2.575  -2.386  1.00  0.00    +0.000 C 
ATOM     14  C   UNL     1      -0.066   2.608  -3.595  1.00  0.00    +0.000 C 
ATOM     15  C   UNL     1      -1.260   2.001  -3.693  1.00  0.00    +0.000 C 
ATOM     16  C   UNL     1      -2.035   2.081  -4.989  1.00  0.00    +0.000 C 
ATOM     17  C   UNL     1      -3.443   2.625  -4.767  1.00  0.00    +0.000 C 
ATOM     18  C   UNL     1      -4.178   1.846  -3.684  1.00  0.00    +0.000 C 
ATOM     19  C   UNL     1      -3.393   1.822  -2.360  1.00  0.00    +0.000 C 
ATOM     20  C   UNL     1      -1.927   1.234  -2.531  1.00  0.00    +0.000 C 
ATOM     21  C   UNL     1      -1.975  -0.265  -2.911  1.00  0.00    +0.000 C 
ATOM     22  C   UNL     1      -1.108   1.419  -1.175  1.00  0.00    +0.000 C 
ATOM     23  C   UNL     1      -1.479   0.413  -0.044  1.00  0.00    +0.000 C 
ATOM     24  C   UNL     1      -0.670   0.604   1.251  1.00  0.00    +0.000 C 
ATOM     25  C   UNL     1       0.837   0.556   0.976  1.00  0.00    +0.000 C 
ATOM     26  C   UNL     1       1.234  -0.864   0.482  1.00  0.00    +0.000 C 
ATOM     27  C   UNL     1       1.713   1.038   2.177  1.00  0.00    +0.000 C 
ATOM     28  C   UNL     1       2.161  -0.003   3.209  1.00  0.00    +0.000 C 
ATOM     29  C   UNL     1       1.462   0.176   4.554  1.00  0.00    +0.000 C 
ATOM     30  C   UNL     1       4.436  -1.134   3.643  1.00  0.00    +0.000 C 
ENDROOT
BRANCH  17  31
ATOM     31  O   UNL     1      -4.193   2.534  -5.978  1.00  0.00    +0.000 OA
ATOM     32  H   UNL     1      -3.753   3.103  -6.634  1.00  0.00    +0.000 HD
ENDBRANCH  17  31
BRANCH  30  33
ATOM     33  O   UNL     1       4.075  -2.260   2.836  1.00  0.00    +0.000 OA
ATOM     34  H   UNL     1       4.667  -2.995   3.078  1.00  0.00    +0.000 HD
ENDBRANCH  30  33
BRANCH  19  35
ATOM     35  O   UNL     1      -4.114   1.080  -1.364  1.00  0.00    +0.000 OA
BRANCH  35  36
ATOM     36  C   UNL     1      -5.303   1.712  -0.866  1.00  0.00    +0.000 C 
ATOM     37  O   UNL     1      -5.053   3.037  -0.374  1.00  0.00    +0.000 OA
ATOM     38  C   UNL     1      -4.271   3.075   0.822  1.00  0.00    +0.000 C 
ATOM     39  C   UNL     1      -4.902   2.281   1.964  1.00  0.00    +0.000 C 
ATOM     40  C   UNL     1      -6.180   1.590   1.509  1.00  0.00    +0.000 C 
ATOM     41  C   UNL     1      -5.952   0.800   0.214  1.00  0.00    +0.000 C 
BRANCH  39  42
ATOM     42  O   UNL     1      -3.978   1.295   2.448  1.00  0.00    +0.000 OA
ATOM     43  H   UNL     1      -4.522   0.712   3.019  1.00  0.00    +0.000 HD
ENDBRANCH  39  42
BRANCH  40  44
ATOM     44  O   UNL     1      -6.616   0.696   2.553  1.00  0.00    +0.000 OA
ATOM     45  H   UNL     1      -7.354   0.185   2.164  1.00  0.00    +0.000 HD
ENDBRANCH  40  44
BRANCH  41  46
ATOM     46  O   UNL     1      -7.268   0.333  -0.156  1.00  0.00    +0.000 OA
BRANCH  46  47
ATOM     47  C   UNL     1      -7.268  -0.818  -1.007  1.00  0.00    +0.000 C 
ATOM     48  O   UNL     1      -6.872  -0.464  -2.326  1.00  0.00    +0.000 OA
ATOM     49  C   UNL     1      -6.792  -1.578  -3.228  1.00  0.00    +0.000 C 
ATOM     50  C   UNL     1      -5.405  -2.208  -3.168  1.00  0.00    +0.000 C 
ATOM     51  C   UNL     1      -7.898  -2.629  -3.010  1.00  0.00    +0.000 C 
ATOM     52  C   UNL     1      -9.105  -1.957  -2.358  1.00  0.00    +0.000 C 
ATOM     53  C   UNL     1      -8.710  -1.380  -0.997  1.00  0.00    +0.000 C 
BRANCH  51  54
ATOM     54  O   UNL     1      -8.320  -3.222  -4.245  1.00  0.00    +0.000 OA
ATOM     55  H   UNL     1      -7.537  -3.615  -4.671  1.00  0.00    +0.000 HD
ENDBRANCH  51  54
BRANCH  52  56
ATOM     56  O   UNL     1     -10.167  -2.912  -2.185  1.00  0.00    +0.000 OA
ATOM     57  H   UNL     1     -10.242  -3.355  -3.055  1.00  0.00    +0.000 HD
ENDBRANCH  52  56
BRANCH  53  58
ATOM     58  O   UNL     1      -8.819  -2.411   0.007  1.00  0.00    +0.000 OA
ATOM     59  H   UNL     1      -9.618  -2.918  -0.256  1.00  0.00    +0.000 HD
ENDBRANCH  53  58
ENDBRANCH  46  47
ENDBRANCH  41  46
ENDBRANCH  35  36
ENDBRANCH  19  35
BRANCH   1  60
ATOM     60  O   UNL     1       6.569  -0.518   2.444  1.00  0.00    +0.000 OA
BRANCH  60  61
ATOM     61  C   UNL     1       6.582  -1.501   1.408  1.00  0.00    +0.000 C 
ATOM     62  O   UNL     1       7.335  -2.633   1.886  1.00  0.00    +0.000 OA
ATOM     63  C   UNL     1       8.057  -3.308   0.854  1.00  0.00    +0.000 C 
ATOM     64  C   UNL     1       8.591  -4.614   1.435  1.00  0.00    +0.000 C 
ATOM     65  C   UNL     1       9.172  -2.383   0.314  1.00  0.00    +0.000 C 
ATOM     66  C   UNL     1       8.711  -0.912   0.236  1.00  0.00    +0.000 C 
ATOM     67  C   UNL     1       7.190  -0.819   0.151  1.00  0.00    +0.000 C 
BRANCH  67  68
ATOM     68  O   UNL     1       6.764  -1.460  -1.066  1.00  0.00    +0.000 OA
ATOM     69  H   UNL     1       7.200  -0.951  -1.778  1.00  0.00    +0.000 HD
ENDBRANCH  67  68
BRANCH  66  70
ATOM     70  O   UNL     1       9.300  -0.285  -0.917  1.00  0.00    +0.000 OA
ATOM     71  H   UNL     1      10.267  -0.360  -0.798  1.00  0.00    +0.000 HD
ENDBRANCH  66  70
BRANCH  65  72
ATOM     72  O   UNL     1      10.349  -2.416   1.143  1.00  0.00    +0.000 OA
ATOM     73  H   UNL     1      10.048  -2.279   2.062  1.00  0.00    +0.000 HD
ENDBRANCH  65  72
ENDBRANCH  60  61
ENDBRANCH   1  60
TORSDOF 16
