REMARK  Name = /srv/my_project/app/compsite/backup/Dave/CORINA_stuff/newPDBs/SANC00609.pdb
AUTHORGENERATED BY OPEN BABEL 2.3.2
REMARK  7 active torsions:
REMARK  status: ('A' for Active; 'I' for Inactive)
REMARK    1  A    between atoms: N_9  and  C_23
REMARK    2  A    between atoms: C_12  and  O_13
REMARK    3  A    between atoms: O_13  and  C_14
REMARK    4  A    between atoms: C_14  and  C_15
REMARK    5  A    between atoms: C_16  and  C_17
REMARK    6  A    between atoms: C_16  and  C_18
REMARK    7  A    between atoms: C_20  and  O_21
REMARK                            x       y       z     vdW  Elec       q    Type
REMARK                         _______ _______ _______ _____ _____    ______ ____
ROOT
ATOM      1  O   UNL     1       0.448   1.325   0.396  1.00  0.00    +0.000 OA
ATOM      2  C   UNL     1      -0.602   0.699   0.308  1.00  0.00    +0.000 A 
ATOM      3  C   UNL     1      -1.876   1.448   0.264  1.00  0.00    +0.000 A 
ATOM      4  C   UNL     1      -3.052   0.778  -0.108  1.00  0.00    +0.000 A 
ATOM      5  C   UNL     1      -4.241   1.529  -0.107  1.00  0.00    +0.000 A 
ATOM      6  C   UNL     1      -4.247   2.892   0.220  1.00  0.00    +0.000 A 
ATOM      7  C   UNL     1      -3.063   3.537   0.560  1.00  0.00    +0.000 A 
ATOM      8  C   UNL     1      -1.875   2.815   0.585  1.00  0.00    +0.000 A 
ATOM      9  N   UNL     1      -2.994  -0.592  -0.440  1.00  0.00    +0.000 N 
ATOM     10  C   UNL     1      -1.865  -1.396  -0.147  1.00  0.00    +0.000 A 
ATOM     11  C   UNL     1      -0.645  -0.787   0.233  1.00  0.00    +0.000 A 
ATOM     12  C   UNL     1       0.483  -1.574   0.528  1.00  0.00    +0.000 A 
ATOM     13  C   UNL     1       0.404  -2.965   0.487  1.00  0.00    +0.000 A 
ATOM     14  C   UNL     1      -0.788  -3.569   0.128  1.00  0.00    +0.000 A 
ATOM     15  C   UNL     1      -1.911  -2.804  -0.184  1.00  0.00    +0.000 A 
ATOM     16  C   UNL     1      -4.154  -1.202  -1.095  1.00  0.00    +0.000 C 
ENDROOT
BRANCH  14  17
ATOM     17  O   UNL     1      -0.824  -4.932   0.104  1.00  0.00    +0.000 OA
ATOM     18  H   UNL     1      -1.721  -5.227  -0.124  1.00  0.00    +0.000 HD
ENDBRANCH  14  17
BRANCH  12  19
ATOM     19  O   UNL     1       1.666  -1.039   0.970  1.00  0.00    +0.000 OA
BRANCH  19  20
ATOM     20  C   UNL     1       2.579  -0.859  -0.120  1.00  0.00    +0.000 C 
BRANCH  20  21
ATOM     21  C   UNL     1       3.876  -0.368   0.456  1.00  0.00    +0.000 C 
ATOM     22  C   UNL     1       4.513   0.797   0.223  1.00  0.00    +0.000 C 
ATOM     23  C   UNL     1       5.818   1.107   0.908  1.00  0.00    +0.000 C 
ATOM     24  C   UNL     1       4.016   1.891  -0.682  1.00  0.00    +0.000 C 
ENDBRANCH  20  21
ENDBRANCH  19  20
ENDBRANCH  12  19
TORSDOF 4
