REMARK  Name = /srv/my_project/app/compsite/backup/Dave/CORINA_stuff/newPDBs/SANC00426.pdb
AUTHORGENERATED BY OPEN BABEL 2.3.2
REMARK  9 active torsions:
REMARK  status: ('A' for Active; 'I' for Inactive)
REMARK    1  A    between atoms: C_1  and  C_2
REMARK    2  A    between atoms: C_2  and  C_3
REMARK    3  A    between atoms: C_2  and  C_4
REMARK    4  A    between atoms: C_5  and  C_6
REMARK    5  A    between atoms: C_6  and  C_8
REMARK    6  A    between atoms: C_6  and  O_20
REMARK    7  A    between atoms: C_10  and  O_19
REMARK    8  A    between atoms: C_12  and  O_17
REMARK    9  A    between atoms: O_17  and  C_18
REMARK                            x       y       z     vdW  Elec       q    Type
REMARK                         _______ _______ _______ _____ _____    ______ ____
ROOT
ATOM      1  C   UNL     1       1.075  -0.530  -0.949  1.00  0.00    +0.000 C 
ATOM      2  C   UNL     1       1.421  -0.181   0.489  1.00  0.00    +0.000 C 
ATOM      3  C   UNL     1       2.932  -0.006   0.423  1.00  0.00    +0.000 C 
ATOM      4  C   UNL     1       3.277  -1.076  -0.611  1.00  0.00    +0.000 C 
ATOM      5  O   UNL     1       4.368  -1.604  -0.765  1.00  0.00    +0.000 OA
ATOM      6  O   UNL     1       2.189  -1.335  -1.395  1.00  0.00    +0.000 OA
ENDROOT
BRANCH   3   7
ATOM      7  O   UNL     1       3.451  -0.071   1.742  1.00  0.00    +0.000 OA
ATOM      8  C   UNL     1       4.860   0.128   1.787  1.00  0.00    +0.000 C 
ENDBRANCH   3   7
BRANCH   2   9
ATOM      9  O   UNL     1       1.090  -1.236   1.403  1.00  0.00    +0.000 OA
ATOM     10  H   UNL     1       1.699  -1.128   2.164  1.00  0.00    +0.000 HD
ENDBRANCH   2   9
BRANCH   1  11
ATOM     11  C   UNL     1      -0.239  -1.302  -1.154  1.00  0.00    +0.000 C 
BRANCH  11  13
ATOM     12  C   UNL     1      -2.388   0.074  -1.104  1.00  0.00    +0.000 C 
ATOM     13  C   UNL     1      -1.429  -0.646  -0.494  1.00  0.00    +0.000 C 
BRANCH  12  15
ATOM     14  C   UNL     1      -3.514   2.246  -0.659  1.00  0.00    +0.000 C 
ATOM     15  C   UNL     1      -3.593   0.730  -0.464  1.00  0.00    +0.000 C 
ATOM     16  C   UNL     1      -3.810   0.408   1.017  1.00  0.00    +0.000 C 
ENDBRANCH  12  15
ENDBRANCH  11  13
BRANCH  11  17
ATOM     17  O   UNL     1      -0.481  -1.408  -2.563  1.00  0.00    +0.000 OA
ATOM     18  H   UNL     1      -1.241  -2.008  -2.661  1.00  0.00    +0.000 HD
ENDBRANCH  11  17
ENDBRANCH   1  11
TORSDOF 6
