REMARK  Name = SANCDB_00879_minRM1.pdb
AUTHORGENERATED BY OPEN BABEL 2.3.2
REMARK  4 active torsions:
REMARK  status: ('A' for Active; 'I' for Inactive)
REMARK    1  A    between atoms: C_1  and  C_2
REMARK    2  A    between atoms: C_8  and  C_15
REMARK    3  A    between atoms: C_12  and  C_13
REMARK    4  A    between atoms: C_12  and  C_14
REMARK                            x       y       z     vdW  Elec       q    Type
REMARK                         _______ _______ _______ _____ _____    ______ ____
ROOT
ATOM      1  C   UNL     1       0.856   2.637  -0.283  1.00  0.00    +0.000 C 
ATOM      2  C   UNL     1      -0.143   1.555  -0.724  1.00  0.00    +0.000 C 
ATOM      3  C   UNL     1      -1.511   1.873  -0.071  1.00  0.00    +0.000 C 
ATOM      4  C   UNL     1      -2.512   0.715  -0.074  1.00  0.00    +0.000 C 
ATOM      5  C   UNL     1      -1.848  -0.655   0.153  1.00  0.00    +0.000 C 
ATOM      6  C   UNL     1      -1.037  -0.642   1.482  1.00  0.00    +0.000 C 
ATOM      7  C   UNL     1       0.322  -0.246   0.999  1.00  0.00    +0.000 C 
ATOM      8  C   UNL     1       1.550  -0.344   1.517  1.00  0.00    +0.000 C 
ATOM      9  C   UNL     1       2.583  -0.094   0.457  1.00  0.00    +0.000 C 
ATOM     10  C   UNL     1       1.780  -0.207  -0.856  1.00  0.00    +0.000 C 
ATOM     11  C   UNL     1       0.316   0.072  -0.479  1.00  0.00    +0.000 C 
ATOM     12  C   UNL     1      -0.771  -0.951  -0.942  1.00  0.00    +0.000 C 
ATOM     13  C   UNL     1      -0.348  -2.446  -0.859  1.00  0.00    +0.000 C 
ATOM     14  C   UNL     1      -1.253  -0.741  -2.389  1.00  0.00    +0.000 C 
ATOM     15  C   UNL     1       1.937  -0.728   2.899  1.00  0.00    +0.000 C 
ENDROOT
TORSDOF 0
