REMARK  Name = /srv/my_project/app/compsite/backup/Dave/CORINA_stuff/newPDBs/SANC00444.pdb
AUTHORGENERATED BY OPEN BABEL 2.3.2
REMARK  8 active torsions:
REMARK  status: ('A' for Active; 'I' for Inactive)
REMARK    1  A    between atoms: C_1  and  C_2
REMARK    2  A    between atoms: C_2  and  C_3
REMARK    3  A    between atoms: C_2  and  C_4
REMARK    4  A    between atoms: C_5  and  O_26
REMARK    5  A    between atoms: C_8  and  C_10
REMARK    6  A    between atoms: C_16  and  C_21
REMARK    7  A    between atoms: C_16  and  C_22
REMARK    8  A    between atoms: C_17  and  C_19
REMARK                            x       y       z     vdW  Elec       q    Type
REMARK                         _______ _______ _______ _____ _____    ______ ____
ROOT
ATOM      1  C   UNL     1       3.237  -0.175   0.029  1.00  0.00    +0.000 A 
ATOM      2  C   UNL     1       2.569   0.664   0.923  1.00  0.00    +0.000 A 
ATOM      3  C   UNL     1       1.195   0.831   0.808  1.00  0.00    +0.000 A 
ATOM      4  C   UNL     1       0.434   0.197  -0.161  1.00  0.00    +0.000 A 
ATOM      5  C   UNL     1       1.075  -0.641  -1.070  1.00  0.00    +0.000 A 
ATOM      6  C   UNL     1       2.468  -0.821  -0.966  1.00  0.00    +0.000 A 
ATOM      7  C   UNL     1      -0.999   0.625   0.029  1.00  0.00    +0.000 C 
ATOM      8  C   UNL     1      -1.439   1.468  -1.187  1.00  0.00    +0.000 C 
ATOM      9  C   UNL     1      -2.944   1.665  -1.294  1.00  0.00    +0.000 C 
ATOM     10  C   UNL     1      -3.673   0.331  -1.244  1.00  0.00    +0.000 C 
ATOM     11  C   UNL     1      -3.463  -0.414   0.093  1.00  0.00    +0.000 C 
ATOM     12  C   UNL     1      -1.930  -0.579   0.376  1.00  0.00    +0.000 C 
ATOM     13  C   UNL     1      -4.097  -1.821  -0.050  1.00  0.00    +0.000 C 
ATOM     14  C   UNL     1      -4.258   0.309   1.202  1.00  0.00    +0.000 C 
ATOM     15  C   UNL     1      -0.826   1.572   1.237  1.00  0.00    +0.000 C 
ATOM     16  O   UNL     1      -1.730   2.180   1.792  1.00  0.00    +0.000 OA
ATOM     17  O   UNL     1       0.489   1.658   1.660  1.00  0.00    +0.000 OA
ENDROOT
BRANCH   1  19
ATOM     18  C   UNL     1       5.548   0.841  -0.195  1.00  0.00    +0.000 C 
ATOM     19  C   UNL     1       4.736  -0.429   0.071  1.00  0.00    +0.000 C 
ATOM     20  C   UNL     1       5.174  -1.109   1.371  1.00  0.00    +0.000 C 
ENDBRANCH   1  19
BRANCH   5  21
ATOM     21  C   UNL     1       0.364  -1.345  -2.163  1.00  0.00    +0.000 C 
ATOM     22  O   UNL     1       0.953  -2.038  -2.984  1.00  0.00    +0.000 OA
ENDBRANCH   5  21
BRANCH  12  23
ATOM     23  C   UNL     1      -1.661  -1.076   1.791  1.00  0.00    +0.000 C 
ATOM     24  O   UNL     1      -0.895  -2.007   2.022  1.00  0.00    +0.000 OA
ENDBRANCH  12  23
BRANCH   2  25
ATOM     25  O   UNL     1       3.251   1.324   1.901  1.00  0.00    +0.000 OA
ATOM     26  H   UNL     1       2.604   1.821   2.434  1.00  0.00    +0.000 HD
ENDBRANCH   2  25
TORSDOF 4
