REMARK  Name = SANCDB_00872_minRM1.pdb
AUTHORGENERATED BY OPEN BABEL 2.3.2
REMARK  4 active torsions:
REMARK  status: ('A' for Active; 'I' for Inactive)
REMARK    1  A    between atoms: C_1  and  C_2
REMARK    2  A    between atoms: C_6  and  C_10
REMARK    3  A    between atoms: C_11  and  O_19
REMARK    4  A    between atoms: C_13  and  C_18
REMARK                            x       y       z     vdW  Elec       q    Type
REMARK                         _______ _______ _______ _____ _____    ______ ____
ROOT
ATOM      1  C   UNL     1      -2.360  -2.835   0.044  1.00  0.00    +0.000 C 
ATOM      2  C   UNL     1      -1.325  -1.713   0.250  1.00  0.00    +0.000 C 
ATOM      3  C   UNL     1      -0.004  -2.174  -0.380  1.00  0.00    +0.000 C 
ATOM      4  C   UNL     1       1.269  -1.560   0.199  1.00  0.00    +0.000 C 
ATOM      5  C   UNL     1       1.441  -0.038   0.269  1.00  0.00    +0.000 C 
ATOM      6  C   UNL     1       2.969   0.077   0.124  1.00  0.00    +0.000 C 
ATOM      7  C   UNL     1       3.305  -1.087  -0.762  1.00  0.00    +0.000 C 
ATOM      8  O   UNL     1       4.309  -1.220  -1.441  1.00  0.00    +0.000 OA
ATOM      9  O   UNL     1       2.334  -2.031  -0.649  1.00  0.00    +0.000 OA
ATOM     10  C   UNL     1       3.598   1.364  -0.374  1.00  0.00    +0.000 C 
ATOM     11  C   UNL     1       0.522   0.719  -0.711  1.00  0.00    +0.000 C 
ATOM     12  C   UNL     1      -0.897   0.800  -0.179  1.00  0.00    +0.000 C 
ATOM     13  C   UNL     1      -1.502   1.849   0.414  1.00  0.00    +0.000 C 
ATOM     14  C   UNL     1      -2.903   1.454   0.651  1.00  0.00    +0.000 C 
ATOM     15  O   UNL     1      -3.735   2.182   1.171  1.00  0.00    +0.000 OA
ATOM     16  C   UNL     1      -3.171   0.061   0.196  1.00  0.00    +0.000 C 
ATOM     17  C   UNL     1      -1.821  -0.389  -0.383  1.00  0.00    +0.000 C 
ATOM     18  C   UNL     1      -1.028   3.194   0.826  1.00  0.00    +0.000 C 
ENDROOT
BRANCH  11  19
ATOM     19  O   UNL     1       0.977   2.038  -0.968  1.00  0.00    +0.000 OA
ATOM     20  H   UNL     1       1.204   2.460  -0.126  1.00  0.00    +0.000 HD
ENDBRANCH  11  19
TORSDOF 1
