REMARK  Name = /srv/my_project/app/compsite/backup/Dave/CORINA_stuff/newPDBs/SANC00164.pdb
AUTHORGENERATED BY OPEN BABEL 2.3.2
REMARK  15 active torsions:
REMARK  status: ('A' for Active; 'I' for Inactive)
REMARK    1  A    between atoms: C_2  and  C_3
REMARK    2  A    between atoms: C_3  and  C_5
REMARK    3  A    between atoms: C_3  and  C_6
REMARK    4  A    between atoms: C_6  and  C_7
REMARK    5  A    between atoms: C_7  and  C_9
REMARK    6  A    between atoms: C_7  and  C_10
REMARK    7  A    between atoms: C_10  and  C_11
REMARK    8  A    between atoms: C_11  and  C_13
REMARK    9  A    between atoms: C_11  and  C_14
REMARK   10  A    between atoms: C_14  and  C_15
REMARK   11  A    between atoms: C_15  and  C_16
REMARK   12  A    between atoms: C_17  and  C_18
REMARK   13  A    between atoms: C_19  and  C_20
REMARK   14  A    between atoms: C_23  and  C_24
REMARK   15  A    between atoms: C_23  and  O_25
REMARK                            x       y       z     vdW  Elec       q    Type
REMARK                         _______ _______ _______ _____ _____    ______ ____
ROOT
ATOM      1  C   UNL     1      -2.783  -0.050  -1.005  1.00  0.00    +0.000 C 
ATOM      2  C   UNL     1      -3.206   1.316  -0.446  1.00  0.00    +0.000 C 
ATOM      3  C   UNL     1      -2.320   2.520  -0.512  1.00  0.00    +0.000 C 
ATOM      4  C   UNL     1      -4.502   1.397  -0.098  1.00  0.00    +0.000 C 
ATOM      5  C   UNL     1      -5.341   2.515   0.398  1.00  0.00    +0.000 C 
ATOM      6  C   UNL     1      -5.094   0.083  -0.384  1.00  0.00    +0.000 C 
ATOM      7  O   UNL     1      -6.298  -0.140  -0.359  1.00  0.00    +0.000 OA
ATOM      8  C   UNL     1      -4.032  -0.950  -0.708  1.00  0.00    +0.000 C 
ATOM      9  C   UNL     1      -3.957  -1.881   0.507  1.00  0.00    +0.000 C 
ENDROOT
BRANCH   1  10
ATOM     10  C   UNL     1      -1.424  -0.724  -0.580  1.00  0.00    +0.000 C 
ATOM     11  C   UNL     1      -1.182  -1.965  -1.461  1.00  0.00    +0.000 C 
BRANCH  10  12
ATOM     12  C   UNL     1      -0.195   0.221  -0.633  1.00  0.00    +0.000 C 
BRANCH  12  13
ATOM     13  C   UNL     1       1.175  -0.429  -0.273  1.00  0.00    +0.000 C 
ATOM     14  C   UNL     1       1.948  -0.775  -1.548  1.00  0.00    +0.000 C 
BRANCH  13  15
ATOM     15  C   UNL     1       1.973   0.535   0.645  1.00  0.00    +0.000 C 
BRANCH  15  16
ATOM     16  C   UNL     1       3.324   0.067   1.244  1.00  0.00    +0.000 C 
ATOM     17  C   UNL     1       3.274  -1.374   1.752  1.00  0.00    +0.000 C 
BRANCH  16  18
ATOM     18  C   UNL     1       4.514   0.332   0.298  1.00  0.00    +0.000 C 
BRANCH  18  19
ATOM     19  C   UNL     1       5.904   0.062   0.888  1.00  0.00    +0.000 C 
ATOM     20  C   UNL     1       6.232   0.916   2.102  1.00  0.00    +0.000 C 
ENDBRANCH  18  19
ENDBRANCH  16  18
ENDBRANCH  15  16
ENDBRANCH  13  15
ENDBRANCH  12  13
ENDBRANCH  10  12
ENDBRANCH   1  10
BRANCH   8  21
ATOM     21  O   UNL     1      -4.410  -1.699  -1.858  1.00  0.00    +0.000 OA
ATOM     22  H   UNL     1      -5.347  -1.945  -1.727  1.00  0.00    +0.000 HD
ENDBRANCH   8  21
TORSDOF 8
