REMARK  Name = SANCDB_01086_minRM1.pdb
AUTHORGENERATED BY OPEN BABEL 2.3.2
REMARK  10 active torsions:
REMARK  status: ('A' for Active; 'I' for Inactive)
REMARK    1  A    between atoms: C_3  and  O_31
REMARK    2  A    between atoms: C_6  and  C_7
REMARK    3  A    between atoms: C_14  and  C_20
REMARK    4  A    between atoms: C_15  and  O_19
REMARK    5  A    between atoms: C_17  and  O_18
REMARK    6  A    between atoms: C_21  and  O_30
REMARK    7  A    between atoms: C_22  and  O_29
REMARK    8  A    between atoms: C_23  and  O_28
REMARK    9  A    between atoms: C_24  and  C_26
REMARK   10  A    between atoms: C_26  and  O_27
REMARK                            x       y       z     vdW  Elec       q    Type
REMARK                         _______ _______ _______ _____ _____    ______ ____
ROOT
ATOM      1  C   UNL     1       2.152   0.738  -0.424  1.00  0.00    +0.000 A 
ATOM      2  C   UNL     1       2.983   1.786  -0.467  1.00  0.00    +0.000 A 
ATOM      3  C   UNL     1       2.441   3.118  -0.177  1.00  0.00    +0.000 A 
ATOM      4  O   UNL     1       3.153   4.116  -0.206  1.00  0.00    +0.000 OA
ATOM      5  C   UNL     1       1.012   3.208   0.153  1.00  0.00    +0.000 A 
ATOM      6  C   UNL     1       0.248   2.035   0.171  1.00  0.00    +0.000 A 
ATOM      7  O   UNL     1       0.804   0.811  -0.130  1.00  0.00    +0.000 OA
ATOM      8  C   UNL     1      -1.123   2.075   0.501  1.00  0.00    +0.000 A 
ATOM      9  C   UNL     1      -1.689   3.330   0.790  1.00  0.00    +0.000 A 
ATOM     10  C   UNL     1      -0.931   4.502   0.765  1.00  0.00    +0.000 A 
ATOM     11  C   UNL     1       0.420   4.437   0.449  1.00  0.00    +0.000 A 
ENDROOT
BRANCH   1  17
ATOM     12  C   UNL     1       3.606  -1.229   0.083  1.00  0.00    +0.000 A 
ATOM     13  C   UNL     1       4.022  -2.537  -0.179  1.00  0.00    +0.000 A 
ATOM     14  C   UNL     1       3.455  -3.236  -1.239  1.00  0.00    +0.000 A 
ATOM     15  C   UNL     1       2.485  -2.648  -2.043  1.00  0.00    +0.000 A 
ATOM     16  C   UNL     1       2.072  -1.341  -1.783  1.00  0.00    +0.000 A 
ATOM     17  C   UNL     1       2.626  -0.621  -0.715  1.00  0.00    +0.000 A 
BRANCH  14  18
ATOM     18  O   UNL     1       3.822  -4.517  -1.524  1.00  0.00    +0.000 OA
ATOM     19  H   UNL     1       4.546  -4.775  -0.929  1.00  0.00    +0.000 HD
ENDBRANCH  14  18
ENDBRANCH   1  17
BRANCH   8  20
ATOM     20  C   UNL     1      -1.980   0.817   0.542  1.00  0.00    +0.000 C 
ATOM     21  C   UNL     1      -2.175   0.175  -0.844  1.00  0.00    +0.000 C 
ATOM     22  C   UNL     1      -3.130  -1.024  -0.723  1.00  0.00    +0.000 C 
ATOM     23  C   UNL     1      -3.019  -1.755   0.626  1.00  0.00    +0.000 C 
ATOM     24  C   UNL     1      -1.690  -1.475   1.353  1.00  0.00    +0.000 C 
ATOM     25  O   UNL     1      -1.370  -0.083   1.488  1.00  0.00    +0.000 OA
BRANCH  23  26
ATOM     26  O   UNL     1      -4.117  -1.305   1.444  1.00  0.00    +0.000 OA
ATOM     27  H   UNL     1      -3.991  -1.668   2.339  1.00  0.00    +0.000 HD
ENDBRANCH  23  26
BRANCH  22  28
ATOM     28  O   UNL     1      -2.860  -1.911  -1.823  1.00  0.00    +0.000 OA
ATOM     29  H   UNL     1      -3.534  -2.615  -1.788  1.00  0.00    +0.000 HD
ENDBRANCH  22  28
BRANCH  21  30
ATOM     30  O   UNL     1      -2.706   1.089  -1.815  1.00  0.00    +0.000 OA
ATOM     31  H   UNL     1      -2.859   0.560  -2.620  1.00  0.00    +0.000 HD
ENDBRANCH  21  30
BRANCH  24  32
ATOM     32  C   UNL     1      -0.504  -2.223   0.728  1.00  0.00    +0.000 C 
BRANCH  32  33
ATOM     33  O   UNL     1      -0.710  -3.631   0.777  1.00  0.00    +0.000 OA
ATOM     34  H   UNL     1       0.076  -4.036   0.366  1.00  0.00    +0.000 HD
ENDBRANCH  32  33
ENDBRANCH  24  32
ENDBRANCH   8  20
BRANCH  11  35
ATOM     35  O   UNL     1       1.108   5.621   0.448  1.00  0.00    +0.000 OA
ATOM     36  H   UNL     1       2.044   5.431   0.210  1.00  0.00    +0.000 HD
ENDBRANCH  11  35
BRANCH   9  37
ATOM     37  O   UNL     1      -3.018   3.407   1.107  1.00  0.00    +0.000 OA
ATOM     38  H   UNL     1      -3.270   4.340   1.206  1.00  0.00    +0.000 HD
ENDBRANCH   9  37
TORSDOF 10
