REMARK  Name = SANCDB_00771_minRM1.pdb
AUTHORGENERATED BY OPEN BABEL 2.3.2
REMARK  4 active torsions:
REMARK  status: ('A' for Active; 'I' for Inactive)
REMARK    1  A    between atoms: C_1  and  C_2
REMARK    2  A    between atoms: C_5  and  C_6
REMARK    3  A    between atoms: C_7  and  C_8
REMARK    4  A    between atoms: C_7  and  O_9
REMARK                            x       y       z     vdW  Elec       q    Type
REMARK                         _______ _______ _______ _____ _____    ______ ____
ROOT
ATOM      1  C   UNL     1      -2.821   2.695   2.478  1.00  0.00    +0.000 C 
ATOM      2  C   UNL     1      -1.449   2.251   2.082  1.00  0.00    +0.000 C 
ATOM      3  C   UNL     1      -1.002   1.818   0.881  1.00  0.00    +0.000 C 
ATOM      4  C   UNL     1      -1.842   1.707  -0.371  1.00  0.00    +0.000 C 
ATOM      5  C   UNL     1      -2.247   0.325  -0.971  1.00  0.00    +0.000 C 
ATOM      6  C   UNL     1      -1.332  -0.098  -2.136  1.00  0.00    +0.000 C 
ATOM      7  C   UNL     1      -2.595  -0.835   0.015  1.00  0.00    +0.000 C 
ATOM      8  C   UNL     1      -3.875  -0.510   0.798  1.00  0.00    +0.000 C 
ATOM      9  C   UNL     1      -1.467  -1.208   1.008  1.00  0.00    +0.000 C 
ATOM     10  O   UNL     1      -1.631  -1.372   2.212  1.00  0.00    +0.000 OA
ATOM     11  O   UNL     1      -0.284  -1.387   0.368  1.00  0.00    +0.000 OA
ATOM     12  C   UNL     1       0.822  -1.711   1.209  1.00  0.00    +0.000 C 
ATOM     13  C   UNL     1       2.066  -1.607   0.394  1.00  0.00    +0.000 C 
ATOM     14  C   UNL     1       2.709  -2.631  -0.175  1.00  0.00    +0.000 C 
ATOM     15  C   UNL     1       3.980  -2.190  -0.796  1.00  0.00    +0.000 C 
ATOM     16  N   UNL     1       4.068  -0.734  -0.571  1.00  0.00    +0.000 NA
ATOM     17  C   UNL     1       2.857  -0.335   0.247  1.00  0.00    +0.000 C 
ATOM     18  C   UNL     1       2.250   0.864  -0.519  1.00  0.00    +0.000 C 
ATOM     19  O   UNL     1       0.849   1.101  -0.383  1.00  0.00    +0.000 OA
ATOM     20  C   UNL     1       0.478   1.580   0.827  1.00  0.00    +0.000 C 
ATOM     21  O   UNL     1       1.245   1.780   1.758  1.00  0.00    +0.000 OA
ATOM     22  C   UNL     1       2.592   0.545  -1.962  1.00  0.00    +0.000 C 
ATOM     23  C   UNL     1       4.008   0.024  -1.834  1.00  0.00    +0.000 C 
ENDROOT
BRANCH   7  24
ATOM     24  O   UNL     1      -2.909  -2.001  -0.773  1.00  0.00    +0.000 OA
ATOM     25  H   UNL     1      -3.151  -2.716  -0.158  1.00  0.00    +0.000 HD
ENDBRANCH   7  24
TORSDOF 1
