REMARK  Name = /srv/my_project/app/compsite/backup/Dave/CORINA_stuff/newPDBs/SANC00585.pdb
AUTHORGENERATED BY OPEN BABEL 2.3.2
REMARK  8 active torsions:
REMARK  status: ('A' for Active; 'I' for Inactive)
REMARK    1  A    between atoms: C_1  and  C_2
REMARK    2  A    between atoms: C_8  and  C_10
REMARK    3  A    between atoms: C_12  and  C_14
REMARK    4  A    between atoms: C_16  and  O_17
REMARK    5  A    between atoms: C_21  and  C_22
REMARK    6  A    between atoms: C_28  and  C_30
REMARK    7  A    between atoms: C_32  and  C_34
REMARK    8  A    between atoms: C_39  and  O_40
REMARK                            x       y       z     vdW  Elec       q    Type
REMARK                         _______ _______ _______ _____ _____    ______ ____
ROOT
ATOM      1  C   UNL     1       0.685   5.150   0.966  1.00  0.00    +0.000 C 
ATOM      2  C   UNL     1       0.122   3.776   0.737  1.00  0.00    +0.000 A 
ATOM      3  C   UNL     1       0.973   2.663   0.675  1.00  0.00    +0.000 A 
ATOM      4  C   UNL     1       0.522   1.334   0.465  1.00  0.00    +0.000 A 
ATOM      5  C   UNL     1       1.408   0.196   0.379  1.00  0.00    +0.000 A 
ATOM      6  C   UNL     1       2.810   0.206   0.026  1.00  0.00    +0.000 A 
ATOM      7  C   UNL     1       3.471   1.327  -0.757  1.00  0.00    +0.000 C 
ATOM      8  C   UNL     1       4.877   1.533  -0.204  1.00  0.00    +0.000 C 
ATOM      9  C   UNL     1       5.539   2.756  -0.824  1.00  0.00    +0.000 C 
ATOM     10  O   UNL     1       5.655   0.397  -0.562  1.00  0.00    +0.000 OA
ATOM     11  C   UNL     1       5.147  -0.861  -0.074  1.00  0.00    +0.000 C 
ATOM     12  C   UNL     1       5.551  -1.872  -1.151  1.00  0.00    +0.000 C 
ATOM     13  C   UNL     1       3.650  -0.914   0.247  1.00  0.00    +0.000 A 
ATOM     14  C   UNL     1       3.085  -2.067   0.787  1.00  0.00    +0.000 A 
ATOM     15  C   UNL     1       1.699  -2.157   0.973  1.00  0.00    +0.000 A 
ATOM     16  C   UNL     1       1.118  -3.443   1.437  1.00  0.00    +0.000 C 
ATOM     17  O   UNL     1       1.835  -4.424   1.617  1.00  0.00    +0.000 OA
ATOM     18  C   UNL     1      -0.336  -3.498   1.710  1.00  0.00    +0.000 C 
ATOM     19  C   UNL     1      -0.863  -4.747   2.342  1.00  0.00    +0.000 C 
ATOM     20  C   UNL     1      -1.094  -2.434   1.415  1.00  0.00    +0.000 C 
ATOM     21  C   UNL     1      -0.560  -1.205   0.801  1.00  0.00    +0.000 A 
ATOM     22  C   UNL     1      -1.415  -0.156   0.413  1.00  0.00    +0.000 A 
ATOM     23  C   UNL     1      -2.837  -0.314  -0.018  1.00  0.00    +0.000 C 
ATOM     24  C   UNL     1      -3.334  -1.594  -0.658  1.00  0.00    +0.000 C 
ATOM     25  C   UNL     1      -4.854  -1.712  -0.497  1.00  0.00    +0.000 C 
ATOM     26  C   UNL     1      -5.386  -2.953  -1.202  1.00  0.00    +0.000 C 
ATOM     27  O   UNL     1      -5.459  -0.574  -1.102  1.00  0.00    +0.000 OA
ATOM     28  C   UNL     1      -5.137   0.668  -0.443  1.00  0.00    +0.000 C 
ATOM     29  C   UNL     1      -5.504   1.744  -1.466  1.00  0.00    +0.000 C 
ATOM     30  C   UNL     1      -3.693   0.729   0.020  1.00  0.00    +0.000 C 
ATOM     31  C   UNL     1      -3.203   2.037   0.513  1.00  0.00    +0.000 C 
ATOM     32  O   UNL     1      -3.966   2.923   0.882  1.00  0.00    +0.000 OA
ATOM     33  C   UNL     1      -1.742   2.262   0.503  1.00  0.00    +0.000 A 
ATOM     34  C   UNL     1      -1.246   3.563   0.652  1.00  0.00    +0.000 A 
ATOM     35  C   UNL     1      -0.882   1.143   0.432  1.00  0.00    +0.000 A 
ATOM     36  C   UNL     1       0.846  -1.057   0.723  1.00  0.00    +0.000 A 
ENDROOT
BRANCH  14  37
ATOM     37  O   UNL     1       3.932  -3.098   1.102  1.00  0.00    +0.000 OA
ATOM     38  H   UNL     1       3.397  -3.875   1.385  1.00  0.00    +0.000 HD
ENDBRANCH  14  37
BRANCH  34  39
ATOM     39  O   UNL     1      -2.062   4.658   0.762  1.00  0.00    +0.000 OA
ATOM     40  H   UNL     1      -2.991   4.348   0.853  1.00  0.00    +0.000 HD
ENDBRANCH  34  39
TORSDOF 2
