REMARK  Name = /srv/my_project/app/compsite/backup/Dave/CORINA_stuff/newPDBs/SANC00302.pdb
AUTHORGENERATED BY OPEN BABEL 2.3.2
REMARK  0 active torsions:
REMARK  status: ('A' for Active; 'I' for Inactive)
REMARK                            x       y       z     vdW  Elec       q    Type
REMARK                         _______ _______ _______ _____ _____    ______ ____
ROOT
ATOM      1 BR   UNL     1       3.798  -1.424  -0.041  1.00  0.00    +0.000 Br
ATOM      2  C   UNL     1       2.102  -0.581  -0.041  1.00  0.00    +0.000 A 
ATOM      3  C   UNL     1       2.029   0.804  -0.158  1.00  0.00    +0.000 A 
ATOM      4  C   UNL     1       0.785   1.449  -0.160  1.00  0.00    +0.000 A 
ATOM      5  C   UNL     1      -0.395   0.684  -0.042  1.00  0.00    +0.000 A 
ATOM      6  C   UNL     1      -1.782   0.974  -0.007  1.00  0.00    +0.000 A 
ATOM      7 BR   UNL     1      -2.526   2.692  -0.125  1.00  0.00    +0.000 Br
ATOM      8  C   UNL     1      -2.480  -0.199   0.125  1.00  0.00    +0.000 A 
ATOM      9  N   UNL     1      -1.561  -1.214   0.173  1.00  0.00    +0.000 N 
ATOM     10  H   UNL     1      -1.781  -2.196   0.268  1.00  0.00    +0.000 HD
ATOM     11  C   UNL     1      -0.282  -0.705   0.073  1.00  0.00    +0.000 A 
ATOM     12  C   UNL     1       0.953  -1.367   0.078  1.00  0.00    +0.000 A 
ENDROOT
TORSDOF 0
