REMARK  Name = /srv/my_project/app/compsite/backup/Dave/CORINA_stuff/newPDBs/SANC00693.pdb
AUTHORGENERATED BY OPEN BABEL 2.3.2
REMARK  47 active torsions:
REMARK  status: ('A' for Active; 'I' for Inactive)
REMARK    1  A    between atoms: C_2  and  O_3
REMARK    2  A    between atoms: O_3  and  C_4
REMARK    3  A    between atoms: C_6  and  O_8
REMARK    4  A    between atoms: C_11  and  O_13
REMARK    5  A    between atoms: O_13  and  C_14
REMARK    6  A    between atoms: C_25  and  O_27
REMARK    7  A    between atoms: O_27  and  C_28
REMARK    8  A    between atoms: C_31  and  C_33
REMARK    9  A    between atoms: C_33  and  O_34
REMARK   10  A    between atoms: O_34  and  C_35
REMARK   11  A    between atoms: C_38  and  C_40
REMARK   12  A    between atoms: C_40  and  O_41
REMARK   13  A    between atoms: C_42  and  O_44
REMARK   14  A    between atoms: O_44  and  C_45
REMARK   15  A    between atoms: C_48  and  C_50
REMARK   16  A    between atoms: C_50  and  O_51
REMARK   17  A    between atoms: C_52  and  O_54
REMARK   18  A    between atoms: C_55  and  O_57
REMARK   19  A    between atoms: C_58  and  O_60
REMARK   20  A    between atoms: C_61  and  O_63
REMARK   21  A    between atoms: C_64  and  O_66
REMARK   22  A    between atoms: C_67  and  O_69
REMARK   23  A    between atoms: C_70  and  O_72
REMARK   24  A    between atoms: C_73  and  O_75
REMARK   25  A    between atoms: C_78  and  C_79
REMARK   26  A    between atoms: C_84  and  C_85
REMARK   27  A    between atoms: C_86  and  O_87
REMARK   28  A    between atoms: C_86  and  C_88
REMARK   29  A    between atoms: C_88  and  C_90
REMARK   30  A    between atoms: C_88  and  C_91
REMARK   31  A    between atoms: C_91  and  C_93
REMARK   32  A    between atoms: C_93  and  C_94
REMARK   33  A    between atoms: C_94  and  C_95
REMARK   34  A    between atoms: C_95  and  C_96
REMARK   35  A    between atoms: C_95  and  C_97
REMARK   36  A    between atoms: C_98  and  O_100
REMARK   37  A    between atoms: O_100  and  C_101
REMARK   38  A    between atoms: C_101  and  C_102
REMARK   39  A    between atoms: C_106  and  O_108
REMARK   40  A    between atoms: C_109  and  O_111
REMARK   41  A    between atoms: C_112  and  O_114
REMARK   42  A    between atoms: O_114  and  C_115
REMARK   43  A    between atoms: C_115  and  C_117
REMARK   44  A    between atoms: C_120  and  O_121
REMARK   45  A    between atoms: O_121  and  C_122
REMARK   46  A    between atoms: C_123  and  O_124
REMARK   47  A    between atoms: O_124  and  C_125
REMARK                            x       y       z     vdW  Elec       q    Type
REMARK                         _______ _______ _______ _____ _____    ______ ____
ROOT
ATOM      1  C   UNL     1      -3.454   1.180  -3.523  1.00  0.00    +0.000 C 
ATOM      2  C   UNL     1      -3.267  -0.128  -2.732  1.00  0.00    +0.000 C 
ATOM      3  C   UNL     1      -3.853   0.146  -1.353  1.00  0.00    +0.000 C 
ATOM      4  C   UNL     1      -3.343  -0.747  -0.220  1.00  0.00    +0.000 C 
ATOM      5  C   UNL     1      -3.611  -2.240  -0.503  1.00  0.00    +0.000 C 
ATOM      6  C   UNL     1      -3.681  -3.106   0.722  1.00  0.00    +0.000 C 
ATOM      7  C   UNL     1      -3.574  -2.653   1.986  1.00  0.00    +0.000 C 
ATOM      8  C   UNL     1      -3.852  -3.582   3.155  1.00  0.00    +0.000 C 
ATOM      9  C   UNL     1      -3.086  -3.191   4.421  1.00  0.00    +0.000 C 
ATOM     10  C   UNL     1      -3.381  -1.734   4.821  1.00  0.00    +0.000 C 
ATOM     11  C   UNL     1      -3.891  -0.836   3.675  1.00  0.00    +0.000 C 
ATOM     12  C   UNL     1      -3.291  -1.172   2.292  1.00  0.00    +0.000 C 
ATOM     13  C   UNL     1      -1.757  -0.913   2.321  1.00  0.00    +0.000 C 
ATOM     14  C   UNL     1      -3.970  -0.330   1.142  1.00  0.00    +0.000 C 
ATOM     15  C   UNL     1      -3.996   1.202   1.378  1.00  0.00    +0.000 C 
ATOM     16  C   UNL     1      -4.428   2.017   0.141  1.00  0.00    +0.000 C 
ATOM     17  C   UNL     1      -3.600   1.656  -1.111  1.00  0.00    +0.000 C 
ATOM     18  C   UNL     1      -2.118   2.003  -0.835  1.00  0.00    +0.000 C 
ATOM     19  C   UNL     1      -4.053   2.235  -2.509  1.00  0.00    +0.000 C 
ENDROOT
BRANCH  19  20
ATOM     20  C   UNL     1      -3.623   3.690  -2.857  1.00  0.00    +0.000 C 
ATOM     21  C   UNL     1      -4.245   4.783  -1.990  1.00  0.00    +0.000 C 
BRANCH  20  22
ATOM     22  C   UNL     1      -3.857   4.033  -4.338  1.00  0.00    +0.000 C 
ATOM     23  O   UNL     1      -2.903   4.324  -5.068  1.00  0.00    +0.000 OA
BRANCH  22  24
ATOM     24  C   UNL     1      -5.278   3.988  -4.888  1.00  0.00    +0.000 C 
BRANCH  24  25
ATOM     25  C   UNL     1      -5.405   4.758  -6.204  1.00  0.00    +0.000 C 
BRANCH  25  26
ATOM     26  C   UNL     1      -6.856   4.875  -6.706  1.00  0.00    +0.000 C 
ATOM     27  C   UNL     1      -6.904   5.772  -7.945  1.00  0.00    +0.000 C 
ATOM     28  C   UNL     1      -7.474   3.513  -7.027  1.00  0.00    +0.000 C 
ENDBRANCH  25  26
ENDBRANCH  24  25
ENDBRANCH  22  24
ENDBRANCH  20  22
ENDBRANCH  19  20
BRANCH  19  29
ATOM     29  O   UNL     1      -5.488   2.137  -2.608  1.00  0.00    +0.000 OA
ATOM     30  H   UNL     1      -5.888   2.630  -1.872  1.00  0.00    +0.000 HD
ENDBRANCH  19  29
BRANCH   9  31
ATOM     31  O   UNL     1      -1.682  -3.337   4.179  1.00  0.00    +0.000 OA
BRANCH  31  32
ATOM     32  C   UNL     1      -1.177  -4.654   4.395  1.00  0.00    +0.000 C 
ATOM     33  O   UNL     1      -0.516  -4.671   5.654  1.00  0.00    +0.000 OA
ATOM     34  C   UNL     1       0.127  -5.915   5.957  1.00  0.00    +0.000 C 
ATOM     35  C   UNL     1       1.126  -6.345   4.870  1.00  0.00    +0.000 C 
ATOM     36  C   UNL     1       0.464  -6.309   3.493  1.00  0.00    +0.000 C 
ATOM     37  C   UNL     1      -0.193  -4.955   3.253  1.00  0.00    +0.000 C 
BRANCH  37  38
ATOM     38  O   UNL     1      -0.850  -4.993   1.976  1.00  0.00    +0.000 OA
ATOM     39  H   UNL     1      -1.250  -4.107   1.867  1.00  0.00    +0.000 HD
ENDBRANCH  37  38
BRANCH  36  40
ATOM     40  O   UNL     1       1.460  -6.566   2.489  1.00  0.00    +0.000 OA
ATOM     41  H   UNL     1       1.041  -6.296   1.645  1.00  0.00    +0.000 HD
ENDBRANCH  36  40
BRANCH  35  42
ATOM     42  O   UNL     1       1.607  -7.670   5.118  1.00  0.00    +0.000 OA
ATOM     43  H   UNL     1       2.154  -7.894   4.337  1.00  0.00    +0.000 HD
ENDBRANCH  35  42
BRANCH  34  44
ATOM     44  C   UNL     1       0.757  -5.829   7.366  1.00  0.00    +0.000 C 
BRANCH  44  45
ATOM     45  O   UNL     1       1.317  -4.568   7.745  1.00  0.00    +0.000 OA
BRANCH  45  46
ATOM     46  C   UNL     1       2.480  -4.159   7.021  1.00  0.00    +0.000 C 
ATOM     47  O   UNL     1       3.465  -5.180   7.071  1.00  0.00    +0.000 OA
ATOM     48  C   UNL     1       4.598  -4.923   6.223  1.00  0.00    +0.000 C 
ATOM     49  C   UNL     1       4.949  -3.425   6.057  1.00  0.00    +0.000 C 
ATOM     50  C   UNL     1       4.499  -2.602   7.277  1.00  0.00    +0.000 C 
ATOM     51  C   UNL     1       3.038  -2.882   7.686  1.00  0.00    +0.000 C 
BRANCH  50  52
ATOM     52  O   UNL     1       5.369  -2.858   8.389  1.00  0.00    +0.000 OA
ATOM     53  H   UNL     1       6.211  -2.401   8.211  1.00  0.00    +0.000 HD
ENDBRANCH  50  52
BRANCH  51  54
ATOM     54  O   UNL     1       2.221  -1.749   7.331  1.00  0.00    +0.000 OA
ATOM     55  H   UNL     1       2.053  -1.260   8.156  1.00  0.00    +0.000 HD
ENDBRANCH  51  54
BRANCH  49  56
ATOM     56  O   UNL     1       4.296  -2.852   4.904  1.00  0.00    +0.000 OA
BRANCH  56  57
ATOM     57  C   UNL     1       4.917  -3.198   3.652  1.00  0.00    +0.000 C 
ATOM     58  O   UNL     1       6.265  -2.732   3.631  1.00  0.00    +0.000 OA
ATOM     59  C   UNL     1       6.888  -2.716   2.324  1.00  0.00    +0.000 C 
ATOM     60  C   UNL     1       6.094  -3.427   1.214  1.00  0.00    +0.000 C 
ATOM     61  C   UNL     1       4.625  -2.982   1.164  1.00  0.00    +0.000 C 
ATOM     62  C   UNL     1       4.105  -2.521   2.534  1.00  0.00    +0.000 C 
BRANCH  62  63
ATOM     63  O   UNL     1       2.704  -2.806   2.644  1.00  0.00    +0.000 OA
ATOM     64  H   UNL     1       2.458  -2.534   3.552  1.00  0.00    +0.000 HD
ENDBRANCH  62  63
BRANCH  60  65
ATOM     65  O   UNL     1       6.143  -4.841   1.473  1.00  0.00    +0.000 OA
ATOM     66  H   UNL     1       5.807  -5.294   0.678  1.00  0.00    +0.000 HD
ENDBRANCH  60  65
BRANCH  61  67
ATOM     67  O   UNL     1       4.496  -1.916   0.217  1.00  0.00    +0.000 OA
ATOM     68  H   UNL     1       3.536  -1.865  -0.001  1.00  0.00    +0.000 HD
ENDBRANCH  61  67
BRANCH  59  69
ATOM     69  C   UNL     1       7.189  -1.251   1.974  1.00  0.00    +0.000 C 
BRANCH  69  70
ATOM     70  O   UNL     1       8.029  -0.682   2.981  1.00  0.00    +0.000 OA
ATOM     71  H   UNL     1       7.659  -0.980   3.834  1.00  0.00    +0.000 HD
ENDBRANCH  69  70
ENDBRANCH  59  69
ENDBRANCH  56  57
ENDBRANCH  49  56
BRANCH  48  72
ATOM     72  C   UNL     1       5.763  -5.714   6.832  1.00  0.00    +0.000 C 
BRANCH  72  73
ATOM     73  O   UNL     1       5.435  -7.105   6.848  1.00  0.00    +0.000 OA
ATOM     74  H   UNL     1       4.527  -7.152   7.208  1.00  0.00    +0.000 HD
ENDBRANCH  72  73
ENDBRANCH  48  72
ENDBRANCH  45  46
ENDBRANCH  44  45
ENDBRANCH  34  44
ENDBRANCH  31  32
ENDBRANCH   9  31
BRANCH   1  75
ATOM     75  O   UNL     1      -2.173   1.599  -4.001  1.00  0.00    +0.000 OA
BRANCH  75  80
ATOM     76  C   UNL     1       0.565   0.685  -5.953  1.00  0.00    +0.000 C 
ATOM     77  C   UNL     1       0.041  -0.434  -6.874  1.00  0.00    +0.000 C 
ATOM     78  C   UNL     1      -1.422  -0.794  -6.605  1.00  0.00    +0.000 C 
ATOM     79  O   UNL     1      -1.858  -0.290  -5.347  1.00  0.00    +0.000 OA
ATOM     80  C   UNL     1      -1.872   1.137  -5.322  1.00  0.00    +0.000 C 
ATOM     81  C   UNL     1      -0.513   1.760  -5.747  1.00  0.00    +0.000 C 
BRANCH  77  82
ATOM     82  O   UNL     1       0.869  -1.595  -6.723  1.00  0.00    +0.000 OA
ATOM     83  H   UNL     1       1.067  -1.648  -5.766  1.00  0.00    +0.000 HD
ENDBRANCH  77  82
BRANCH  81  84
ATOM     84  O   UNL     1      -0.719   2.485  -6.985  1.00  0.00    +0.000 OA
BRANCH  84  85
ATOM     85  C   UNL     1       0.153   3.508  -7.198  1.00  0.00    +0.000 C 
ATOM     86  C   UNL     1      -0.248   4.289  -8.410  1.00  0.00    +0.000 C 
ATOM     87  O   UNL     1       1.144   3.737  -6.518  1.00  0.00    +0.000 OA
ENDBRANCH  84  85
ENDBRANCH  81  84
BRANCH  76  88
ATOM     88  O   UNL     1       0.973   0.100  -4.695  1.00  0.00    +0.000 OA
BRANCH  88  89
ATOM     89  C   UNL     1       2.029   0.821  -4.050  1.00  0.00    +0.000 C 
ATOM     90  O   UNL     1       3.125  -0.067  -3.811  1.00  0.00    +0.000 OA
ATOM     91  C   UNL     1       2.783  -1.203  -3.009  1.00  0.00    +0.000 C 
ATOM     92  C   UNL     1       1.756  -0.905  -1.916  1.00  0.00    +0.000 C 
ATOM     93  C   UNL     1       1.827   0.566  -1.520  1.00  0.00    +0.000 C 
ATOM     94  C   UNL     1       1.556   1.477  -2.731  1.00  0.00    +0.000 C 
BRANCH  93  95
ATOM     95  O   UNL     1       0.869   0.766  -0.464  1.00  0.00    +0.000 OA
ATOM     96  H   UNL     1       0.766   1.737  -0.346  1.00  0.00    +0.000 HD
ENDBRANCH  93  95
BRANCH  92  97
ATOM     97  O   UNL     1       1.983  -1.721  -0.756  1.00  0.00    +0.000 OA
ATOM     98  H   UNL     1       1.336  -1.383  -0.098  1.00  0.00    +0.000 HD
ENDBRANCH  92  97
BRANCH  94  99
ATOM     99  O   UNL     1       2.309   2.715  -2.575  1.00  0.00    +0.000 OA
BRANCH  99 100
ATOM    100  C   UNL     1       1.849   3.605  -1.666  1.00  0.00    +0.000 C 
ATOM    101  O   UNL     1       0.900   3.419  -0.919  1.00  0.00    +0.000 OA
BRANCH 100 102
ATOM    102  C   UNL     1       2.664   4.849  -1.679  1.00  0.00    +0.000 A 
ATOM    103  C   UNL     1       2.262   5.905  -0.853  1.00  0.00    +0.000 A 
ATOM    104  C   UNL     1       2.988   7.098  -0.826  1.00  0.00    +0.000 A 
ATOM    105  C   UNL     1       4.128   7.247  -1.623  1.00  0.00    +0.000 A 
ATOM    106  C   UNL     1       4.541   6.184  -2.454  1.00  0.00    +0.000 A 
ATOM    107  C   UNL     1       3.804   4.994  -2.481  1.00  0.00    +0.000 A 
BRANCH 105 108
ATOM    108  O   UNL     1       4.905   8.377  -1.661  1.00  0.00    +0.000 OA
ATOM    109  C   UNL     1       4.516   9.475  -0.847  1.00  0.00    +0.000 C 
ENDBRANCH 105 108
BRANCH 106 110
ATOM    110  O   UNL     1       5.675   6.409  -3.196  1.00  0.00    +0.000 OA
ATOM    111  C   UNL     1       6.157   5.352  -4.013  1.00  0.00    +0.000 C 
ENDBRANCH 106 110
ENDBRANCH 100 102
ENDBRANCH  99 100
ENDBRANCH  94  99
ENDBRANCH  88  89
ENDBRANCH  76  88
ENDBRANCH  75  80
ENDBRANCH   1  75
TORSDOF 39
