REMARK  Name = SANCDB_01002_minRM1.pdb
AUTHORGENERATED BY OPEN BABEL 2.3.2
REMARK  11 active torsions:
REMARK  status: ('A' for Active; 'I' for Inactive)
REMARK    1  A    between atoms: C_1  and  C_2
REMARK    2  A    between atoms: C_2  and  O_25
REMARK    3  A    between atoms: C_4  and  O_24
REMARK    4  A    between atoms: C_5  and  O_23
REMARK    5  A    between atoms: C_7  and  O_11
REMARK    6  A    between atoms: O_11  and  C_12
REMARK    7  A    between atoms: C_13  and  O_22
REMARK    8  A    between atoms: C_14  and  O_21
REMARK    9  A    between atoms: C_15  and  O_20
REMARK   10  A    between atoms: C_16  and  C_18
REMARK   11  A    between atoms: C_18  and  O_19
REMARK                            x       y       z     vdW  Elec       q    Type
REMARK                         _______ _______ _______ _____ _____    ______ ____
ROOT
ATOM      1  C   UNL     1      -2.712   2.354   1.446  1.00  0.00    +0.000 C 
ATOM      2  C   UNL     1      -3.153   1.441   0.310  1.00  0.00    +0.000 C 
ATOM      3  C   UNL     1      -4.436   0.667   0.671  1.00  0.00    +0.000 C 
ATOM      4  C   UNL     1      -4.349  -0.574  -0.208  1.00  0.00    +0.000 C 
ATOM      5  C   UNL     1      -2.862  -0.966  -0.111  1.00  0.00    +0.000 C 
ATOM      6  C   UNL     1      -2.132   0.390  -0.215  1.00  0.00    +0.000 C 
ATOM      7  C   UNL     1      -0.780   0.307   0.498  1.00  0.00    +0.000 C 
ATOM      8  O   UNL     1      -0.876  -0.154   1.855  1.00  0.00    +0.000 OA
ATOM      9  C   UNL     1      -1.655  -1.263   2.032  1.00  0.00    +0.000 C 
ATOM     10  C   UNL     1      -2.555  -1.710   1.153  1.00  0.00    +0.000 C 
ENDROOT
BRANCH   5  11
ATOM     11  O   UNL     1      -2.531  -1.826  -1.202  1.00  0.00    +0.000 OA
ATOM     12  H   UNL     1      -1.557  -1.805  -1.277  1.00  0.00    +0.000 HD
ENDBRANCH   5  11
BRANCH   4  13
ATOM     13  O   UNL     1      -4.676  -0.217  -1.558  1.00  0.00    +0.000 OA
ATOM     14  H   UNL     1      -4.300  -0.941  -2.102  1.00  0.00    +0.000 HD
ENDBRANCH   4  13
BRANCH   2  15
ATOM     15  O   UNL     1      -3.467   2.312  -0.793  1.00  0.00    +0.000 OA
ATOM     16  H   UNL     1      -3.998   1.790  -1.432  1.00  0.00    +0.000 HD
ENDBRANCH   2  15
BRANCH   7  17
ATOM     17  O   UNL     1       0.060  -0.582  -0.266  1.00  0.00    +0.000 OA
BRANCH  17  18
ATOM     18  C   UNL     1       1.440  -0.416   0.075  1.00  0.00    +0.000 C 
ATOM     19  C   UNL     1       2.183  -1.651  -0.471  1.00  0.00    +0.000 C 
ATOM     20  C   UNL     1       3.685  -1.490  -0.252  1.00  0.00    +0.000 C 
ATOM     21  C   UNL     1       4.171  -0.158  -0.826  1.00  0.00    +0.000 C 
ATOM     22  C   UNL     1       3.331   0.988  -0.239  1.00  0.00    +0.000 C 
ATOM     23  O   UNL     1       1.941   0.778  -0.523  1.00  0.00    +0.000 OA
BRANCH  21  24
ATOM     24  O   UNL     1       5.562   0.012  -0.531  1.00  0.00    +0.000 OA
ATOM     25  H   UNL     1       5.976  -0.847  -0.762  1.00  0.00    +0.000 HD
ENDBRANCH  21  24
BRANCH  20  26
ATOM     26  O   UNL     1       4.402  -2.560  -0.886  1.00  0.00    +0.000 OA
ATOM     27  H   UNL     1       3.941  -3.378  -0.607  1.00  0.00    +0.000 HD
ENDBRANCH  20  26
BRANCH  19  28
ATOM     28  O   UNL     1       1.752  -2.857   0.178  1.00  0.00    +0.000 OA
ATOM     29  H   UNL     1       0.775  -2.840   0.159  1.00  0.00    +0.000 HD
ENDBRANCH  19  28
BRANCH  22  30
ATOM     30  C   UNL     1       3.764   2.343  -0.817  1.00  0.00    +0.000 C 
BRANCH  30  31
ATOM     31  O   UNL     1       5.073   2.707  -0.394  1.00  0.00    +0.000 OA
ATOM     32  H   UNL     1       5.635   1.907  -0.478  1.00  0.00    +0.000 HD
ENDBRANCH  30  31
ENDBRANCH  22  30
ENDBRANCH  17  18
ENDBRANCH   7  17
TORSDOF 10
