REMARK  Name = /srv/my_project/app/compsite/backup/Dave/CORINA_stuff/newPDBs/SANC00555.pdb
AUTHORGENERATED BY OPEN BABEL 2.3.2
REMARK  8 active torsions:
REMARK  status: ('A' for Active; 'I' for Inactive)
REMARK    1  A    between atoms: C_8  and  O_9
REMARK    2  A    between atoms: C_10  and  O_11
REMARK    3  A    between atoms: C_12  and  C_13
REMARK    4  A    between atoms: C_13  and  C_14
REMARK    5  A    between atoms: C_13  and  C_15
REMARK    6  A    between atoms: C_17  and  C_18
REMARK    7  A    between atoms: C_22  and  C_23
REMARK    8  A    between atoms: C_22  and  C_24
REMARK                            x       y       z     vdW  Elec       q    Type
REMARK                         _______ _______ _______ _____ _____    ______ ____
ROOT
ATOM      1  C   UNL     1       1.659   0.583   0.531  1.00  0.00    +0.000 C 
ATOM      2  C   UNL     1       1.616   0.804   2.038  1.00  0.00    +0.000 C 
ATOM      3  C   UNL     1       0.383   1.565   2.402  1.00  0.00    +0.000 C 
ATOM      4  O   UNL     1       0.389   2.345   3.352  1.00  0.00    +0.000 OA
ATOM      5  C   UNL     1      -0.863   1.302   1.628  1.00  0.00    +0.000 A 
ATOM      6  C   UNL     1      -1.990   1.995   2.087  1.00  0.00    +0.000 A 
ATOM      7  C   UNL     1      -3.206   1.768   1.494  1.00  0.00    +0.000 A 
ATOM      8  C   UNL     1      -3.345   0.836   0.470  1.00  0.00    +0.000 A 
ATOM      9  C   UNL     1      -2.243   0.090  -0.020  1.00  0.00    +0.000 A 
ATOM     10  C   UNL     1      -0.931   0.380   0.533  1.00  0.00    +0.000 A 
ATOM     11  C   UNL     1       0.419  -0.259   0.028  1.00  0.00    +0.000 C 
ATOM     12  C   UNL     1       0.471  -1.705   0.583  1.00  0.00    +0.000 C 
ATOM     13  C   UNL     1       0.501  -0.259  -1.540  1.00  0.00    +0.000 C 
ATOM     14  C   UNL     1       1.863   0.051  -2.166  1.00  0.00    +0.000 C 
ATOM     15  C   UNL     1       2.996  -0.548  -1.357  1.00  0.00    +0.000 C 
ATOM     16  C   UNL     1       3.082   0.098   0.043  1.00  0.00    +0.000 C 
ATOM     17  C   UNL     1       4.014   1.337  -0.059  1.00  0.00    +0.000 C 
ATOM     18  C   UNL     1       3.779  -0.892   1.000  1.00  0.00    +0.000 C 
ENDROOT
BRANCH   9  19
ATOM     19  C   UNL     1      -2.491  -1.031  -1.038  1.00  0.00    +0.000 C 
ATOM     20  C   UNL     1      -2.898  -0.538  -2.433  1.00  0.00    +0.000 C 
ATOM     21  C   UNL     1      -3.445  -2.119  -0.518  1.00  0.00    +0.000 C 
ENDBRANCH   9  19
BRANCH   7  22
ATOM     22  O   UNL     1      -4.299   2.455   1.946  1.00  0.00    +0.000 OA
ATOM     23  H   UNL     1      -5.040   2.108   1.410  1.00  0.00    +0.000 HD
ENDBRANCH   7  22
BRANCH   8  24
ATOM     24  O   UNL     1      -4.641   0.725   0.027  1.00  0.00    +0.000 OA
ATOM     25  H   UNL     1      -4.672   0.202  -0.783  1.00  0.00    +0.000 HD
ENDBRANCH   8  24
TORSDOF 3
