REMARK  Name = SANCDB_00895_minRM1.pdb
AUTHORGENERATED BY OPEN BABEL 2.3.2
REMARK  9 active torsions:
REMARK  status: ('A' for Active; 'I' for Inactive)
REMARK    1  A    between atoms: C_1  and  C_2
REMARK    2  A    between atoms: C_2  and  C_3
REMARK    3  A    between atoms: C_3  and  C_4
REMARK    4  A    between atoms: C_4  and  C_5
REMARK    5  A    between atoms: C_5  and  C_6
REMARK    6  A    between atoms: C_6  and  C_7
REMARK    7  A    between atoms: C_7  and  C_8
REMARK    8  A    between atoms: C_8  and  C_9
REMARK    9  A    between atoms: C_9  and  O_11
REMARK                            x       y       z     vdW  Elec       q    Type
REMARK                         _______ _______ _______ _____ _____    ______ ____
ROOT
ATOM      1  C   UNL     1       0.824   0.056   0.282  1.00  0.00    +0.000 C 
ENDROOT
BRANCH   1   2
ATOM      2  C   UNL     1      -0.024   1.137  -0.391  1.00  0.00    +0.000 C 
BRANCH   2   3
ATOM      3  C   UNL     1      -1.519   1.019  -0.079  1.00  0.00    +0.000 C 
BRANCH   3   4
ATOM      4  C   UNL     1      -2.157  -0.254  -0.642  1.00  0.00    +0.000 C 
BRANCH   4   6
ATOM      5  C   UNL     1      -4.176  -0.292   0.918  1.00  0.00    +0.000 C 
ATOM      6  C   UNL     1      -3.683  -0.268  -0.520  1.00  0.00    +0.000 C 
ENDBRANCH   4   6
ENDBRANCH   3   4
ENDBRANCH   2   3
ENDBRANCH   1   2
BRANCH   1   7
ATOM      7  C   UNL     1       2.315   0.285   0.030  1.00  0.00    +0.000 C 
BRANCH   7   8
ATOM      8  C   UNL     1       3.163  -0.792   0.696  1.00  0.00    +0.000 C 
BRANCH   8   9
ATOM      9  C   UNL     1       4.623  -0.537   0.463  1.00  0.00    +0.000 C 
ATOM     10  O   UNL     1       5.389   0.024   1.228  1.00  0.00    +0.000 OA
BRANCH   9  11
ATOM     11  O   UNL     1       5.045  -0.980  -0.736  1.00  0.00    +0.000 OA
ATOM     12  H   UNL     1       5.995  -0.739  -0.757  1.00  0.00    +0.000 HD
ENDBRANCH   9  11
ENDBRANCH   8   9
ENDBRANCH   7   8
ENDBRANCH   1   7
TORSDOF 8
