REMARK  Name = /srv/my_project/app/compsite/backup/Dave/CORINA_stuff/newPDBs/SANC00417.pdb
AUTHORGENERATED BY OPEN BABEL 2.3.2
REMARK  11 active torsions:
REMARK  status: ('A' for Active; 'I' for Inactive)
REMARK    1  A    between atoms: O_1  and  C_2
REMARK    2  A    between atoms: C_9  and  C_13
REMARK    3  A    between atoms: C_11  and  O_12
REMARK    4  A    between atoms: N_15  and  C_30
REMARK    5  A    between atoms: C_17  and  C_18
REMARK    6  A    between atoms: C_20  and  O_21
REMARK    7  A    between atoms: C_22  and  O_23
REMARK    8  A    between atoms: C_30  and  C_31
REMARK    9  A    between atoms: C_31  and  C_32
REMARK   10  A    between atoms: C_32  and  N_33
REMARK   11  A    between atoms: C_35  and  C_36
REMARK                            x       y       z     vdW  Elec       q    Type
REMARK                         _______ _______ _______ _____ _____    ______ ____
ROOT
ATOM      1  C   UNL     1      -2.513   0.622  -0.742  1.00  0.00    +0.000 A 
ATOM      2  C   UNL     1      -1.400   1.156  -1.363  1.00  0.00    +0.000 A 
ATOM      3  N   UNL     1      -0.287   0.615  -0.775  1.00  0.00    +0.000 N 
ATOM      4  C   UNL     1      -0.663  -0.271   0.201  1.00  0.00    +0.000 A 
ATOM      5  C   UNL     1      -2.043  -0.300   0.244  1.00  0.00    +0.000 A 
ENDROOT
BRANCH   1  13
ATOM      6  C   UNL     1      -6.476   1.520  -1.898  1.00  0.00    +0.000 A 
ATOM      7  C   UNL     1      -6.076   1.936  -0.636  1.00  0.00    +0.000 A 
ATOM      8  N   UNL     1      -6.986   2.574   0.132  1.00  0.00    +0.000 NA
ATOM      9  C   UNL     1      -6.593   2.984   1.357  1.00  0.00    +0.000 A 
ATOM     10  C   UNL     1      -5.320   2.799   1.856  1.00  0.00    +0.000 A 
ATOM     11  C   UNL     1      -4.392   2.145   1.052  1.00  0.00    +0.000 A 
ATOM     12  C   UNL     1      -4.749   1.674  -0.231  1.00  0.00    +0.000 A 
ATOM     13  C   UNL     1      -3.873   0.980  -1.121  1.00  0.00    +0.000 A 
ATOM     14  C   UNL     1      -4.318   0.590  -2.394  1.00  0.00    +0.000 A 
ATOM     15  C   UNL     1      -5.619   0.863  -2.770  1.00  0.00    +0.000 A 
BRANCH   6  16
ATOM     16  O   UNL     1      -7.766   1.763  -2.322  1.00  0.00    +0.000 OA
ATOM     17  H   UNL     1      -8.171   2.224  -1.553  1.00  0.00    +0.000 HD
ENDBRANCH   6  16
BRANCH  15  18
ATOM     18  O   UNL     1      -6.060   0.474  -4.002  1.00  0.00    +0.000 OA
ATOM     19  H   UNL     1      -6.992   0.772  -4.035  1.00  0.00    +0.000 HD
ENDBRANCH  15  18
ENDBRANCH   1  13
BRANCH   5  20
ATOM     20  C   UNL     1      -2.783  -1.134   1.180  1.00  0.00    +0.000 A 
ATOM     21  C   UNL     1      -2.689  -0.822   2.545  1.00  0.00    +0.000 A 
ATOM     22  C   UNL     1      -3.420  -1.554   3.460  1.00  0.00    +0.000 A 
ATOM     23  C   UNL     1      -4.236  -2.593   3.033  1.00  0.00    +0.000 A 
ATOM     24  C   UNL     1      -4.350  -2.945   1.696  1.00  0.00    +0.000 A 
ATOM     25  N   UNL     1      -5.167  -3.976   1.385  1.00  0.00    +0.000 NA
ATOM     26  C   UNL     1      -5.270  -4.323   0.085  1.00  0.00    +0.000 A 
ATOM     27  C   UNL     1      -4.583  -3.695  -0.933  1.00  0.00    +0.000 A 
ATOM     28  C   UNL     1      -3.743  -2.638  -0.599  1.00  0.00    +0.000 A 
ATOM     29  C   UNL     1      -3.608  -2.215   0.741  1.00  0.00    +0.000 A 
BRANCH  22  30
ATOM     30  O   UNL     1      -3.341  -1.246   4.787  1.00  0.00    +0.000 OA
ATOM     31  H   UNL     1      -3.934  -1.892   5.225  1.00  0.00    +0.000 HD
ENDBRANCH  22  30
BRANCH  23  32
ATOM     32  O   UNL     1      -4.949  -3.288   3.987  1.00  0.00    +0.000 OA
ATOM     33  H   UNL     1      -5.440  -3.955   3.457  1.00  0.00    +0.000 HD
ENDBRANCH  23  32
ENDBRANCH   5  20
BRANCH   3  34
ATOM     34  C   UNL     1       1.088   0.923  -1.139  1.00  0.00    +0.000 C 
BRANCH  34  35
ATOM     35  C   UNL     1       1.633   2.098  -0.334  1.00  0.00    +0.000 C 
BRANCH  35  36
ATOM     36  C   UNL     1       3.056   2.490  -0.748  1.00  0.00    +0.000 C 
BRANCH  36  37
ATOM     37  N   UNL     1       4.130   1.499  -0.472  1.00  0.00    +0.000 NA
ATOM     38  C   UNL     1       5.372   1.993  -1.114  1.00  0.00    +0.000 C 
ATOM     39  C   UNL     1       6.565   1.023  -1.362  1.00  0.00    +0.000 C 
ATOM     40  C   UNL     1       7.512   0.878  -0.173  1.00  0.00    +0.000 C 
ATOM     41  C   UNL     1       6.183  -0.287  -2.103  1.00  0.00    +0.000 C 
ATOM     42  C   UNL     1       6.388  -1.633  -1.386  1.00  0.00    +0.000 C 
ATOM     43  C   UNL     1       5.109  -2.447  -1.151  1.00  0.00    +0.000 C 
ATOM     44  C   UNL     1       4.001  -1.717  -0.396  1.00  0.00    +0.000 C 
ATOM     45  C   UNL     1       4.390  -1.289   1.020  1.00  0.00    +0.000 C 
ATOM     46  C   UNL     1       3.676  -0.021   1.498  1.00  0.00    +0.000 C 
ATOM     47  C   UNL     1       4.290   1.295   0.981  1.00  0.00    +0.000 C 
ENDBRANCH  36  37
ENDBRANCH  35  36
ENDBRANCH  34  35
ENDBRANCH   3  34
TORSDOF 10
