REMARK  Name = SANC00397.pdb
AUTHORGENERATED BY OPEN BABEL 2.3.2
REMARK  25 active torsions:
REMARK  status: ('A' for Active; 'I' for Inactive)
REMARK    1  A    between atoms: C_12  and  O_14
REMARK    2  A    between atoms: O_14  and  C_15
REMARK    3  A    between atoms: C_18  and  C_20
REMARK    4  A    between atoms: C_20  and  O_21
REMARK    5  A    between atoms: C_22  and  O_24
REMARK    6  A    between atoms: C_25  and  O_27
REMARK    7  A    between atoms: C_28  and  O_30
REMARK    8  A    between atoms: O_30  and  C_31
REMARK    9  A    between atoms: C_34  and  C_36
REMARK   10  A    between atoms: C_36  and  O_37
REMARK   11  A    between atoms: C_38  and  O_40
REMARK   12  A    between atoms: C_41  and  O_43
REMARK   13  A    between atoms: C_44  and  O_46
REMARK   14  A    between atoms: O_46  and  C_47
REMARK   15  A    between atoms: C_50  and  C_52
REMARK   16  A    between atoms: C_53  and  O_55
REMARK   17  A    between atoms: C_56  and  O_58
REMARK   18  A    between atoms: C_59  and  O_61
REMARK   19  A    between atoms: C_64  and  C_65
REMARK   20  A    between atoms: C_70  and  C_71
REMARK   21  A    between atoms: C_75  and  C_77
REMARK   22  A    between atoms: C_78  and  C_80
REMARK   23  A    between atoms: C_81  and  C_82
REMARK   24  A    between atoms: C_81  and  C_83
REMARK   25  A    between atoms: C_84  and  O_86
REMARK                            x       y       z     vdW  Elec       q    Type
REMARK                         _______ _______ _______ _____ _____    ______ ____
ROOT
ATOM      1  C   UNL     1      -3.044  -2.090  -3.552  1.00  0.00    +0.000 C 
ATOM      2  O   UNL     1      -3.022  -2.811  -4.781  1.00  0.00    +0.000 OA
ATOM      3  C   UNL     1      -4.228  -3.544  -5.025  1.00  0.00    +0.000 C 
ATOM      4  C   UNL     1      -5.427  -2.597  -5.111  1.00  0.00    +0.000 C 
ATOM      5  C   UNL     1      -5.524  -1.737  -3.846  1.00  0.00    +0.000 C 
ATOM      6  C   UNL     1      -4.192  -1.060  -3.499  1.00  0.00    +0.000 C 
ENDROOT
BRANCH   5   7
ATOM      7  O   UNL     1      -6.585  -0.779  -4.046  1.00  0.00    +0.000 OA
ATOM      8  H   UNL     1      -6.261  -0.106  -4.673  1.00  0.00    +0.000 HD
ENDBRANCH   5   7
BRANCH   4   9
ATOM      9  O   UNL     1      -6.646  -3.339  -5.250  1.00  0.00    +0.000 OA
ATOM     10  H   UNL     1      -7.367  -2.696  -5.093  1.00  0.00    +0.000 HD
ENDBRANCH   4   9
BRANCH   6  11
ATOM     11  O   UNL     1      -4.261  -0.556  -2.151  1.00  0.00    +0.000 OA
BRANCH  11  12
ATOM     12  C   UNL     1      -4.584   0.838  -2.072  1.00  0.00    +0.000 C 
ATOM     13  O   UNL     1      -3.475   1.580  -2.568  1.00  0.00    +0.000 OA
ATOM     14  C   UNL     1      -3.476   2.990  -2.310  1.00  0.00    +0.000 C 
ATOM     15  C   UNL     1      -4.753   3.530  -1.645  1.00  0.00    +0.000 C 
ATOM     16  C   UNL     1      -5.247   2.665  -0.474  1.00  0.00    +0.000 C 
ATOM     17  C   UNL     1      -4.862   1.178  -0.596  1.00  0.00    +0.000 C 
BRANCH  16  18
ATOM     18  O   UNL     1      -4.771   3.204   0.770  1.00  0.00    +0.000 OA
ATOM     19  H   UNL     1      -3.790   3.117   0.743  1.00  0.00    +0.000 HD
ENDBRANCH  16  18
BRANCH  15  20
ATOM     20  O   UNL     1      -5.786   3.571  -2.651  1.00  0.00    +0.000 OA
ATOM     21  H   UNL     1      -6.521   4.096  -2.284  1.00  0.00    +0.000 HD
ENDBRANCH  15  20
BRANCH  17  22
ATOM     22  O   UNL     1      -5.933   0.342  -0.101  1.00  0.00    +0.000 OA
BRANCH  22  23
ATOM     23  C   UNL     1      -6.016   0.311   1.328  1.00  0.00    +0.000 C 
ATOM     24  O   UNL     1      -4.838  -0.220   1.922  1.00  0.00    +0.000 OA
ATOM     25  C   UNL     1      -4.835  -0.118   3.356  1.00  0.00    +0.000 C 
ATOM     26  C   UNL     1      -4.065   1.133   3.769  1.00  0.00    +0.000 C 
ATOM     27  C   UNL     1      -6.245  -0.151   3.979  1.00  0.00    +0.000 C 
ATOM     28  C   UNL     1      -7.151  -1.062   3.146  1.00  0.00    +0.000 C 
ATOM     29  C   UNL     1      -7.217  -0.594   1.684  1.00  0.00    +0.000 C 
BRANCH  29  30
ATOM     30  O   UNL     1      -8.460   0.099   1.452  1.00  0.00    +0.000 OA
ATOM     31  H   UNL     1      -8.449   0.331   0.503  1.00  0.00    +0.000 HD
ENDBRANCH  29  30
BRANCH  28  32
ATOM     32  O   UNL     1      -8.459  -1.097   3.743  1.00  0.00    +0.000 OA
ATOM     33  H   UNL     1      -9.037  -0.620   3.106  1.00  0.00    +0.000 HD
ENDBRANCH  28  32
BRANCH  27  34
ATOM     34  O   UNL     1      -6.192  -0.621   5.329  1.00  0.00    +0.000 OA
ATOM     35  H   UNL     1      -7.111  -0.885   5.542  1.00  0.00    +0.000 HD
ENDBRANCH  27  34
ENDBRANCH  22  23
ENDBRANCH  17  22
BRANCH  14  36
ATOM     36  C   UNL     1      -2.197   3.337  -1.528  1.00  0.00    +0.000 C 
BRANCH  36  37
ATOM     37  O   UNL     1      -2.297   2.982  -0.148  1.00  0.00    +0.000 OA
ATOM     38  H   UNL     1      -1.385   2.997   0.204  1.00  0.00    +0.000 HD
ENDBRANCH  36  37
ENDBRANCH  14  36
ENDBRANCH  11  12
ENDBRANCH   6  11
BRANCH   3  39
ATOM     39  C   UNL     1      -4.046  -4.351  -6.321  1.00  0.00    +0.000 C 
BRANCH  39  40
ATOM     40  O   UNL     1      -3.937  -3.494  -7.458  1.00  0.00    +0.000 OA
ATOM     41  H   UNL     1      -3.727  -4.062  -8.219  1.00  0.00    +0.000 HD
ENDBRANCH  39  40
ENDBRANCH   3  39
BRANCH   1  42
ATOM     42  O   UNL     1      -1.816  -1.363  -3.439  1.00  0.00    +0.000 OA
BRANCH  42  51
ATOM     43  C   UNL     1       6.311  -1.291   2.492  1.00  0.00    +0.000 C 
ATOM     44  C   UNL     1       4.947  -1.966   2.245  1.00  0.00    +0.000 C 
ATOM     45  C   UNL     1       4.412  -1.285   0.987  1.00  0.00    +0.000 C 
ATOM     46  C   UNL     1       2.903  -1.325   0.715  1.00  0.00    +0.000 C 
ATOM     47  C   UNL     1       2.395  -2.774   0.703  1.00  0.00    +0.000 C 
ATOM     48  C   UNL     1       1.076  -2.952   0.025  1.00  0.00    +0.000 C 
ATOM     49  C   UNL     1       0.464  -2.012  -0.716  1.00  0.00    +0.000 C 
ATOM     50  C   UNL     1      -0.833  -2.318  -1.431  1.00  0.00    +0.000 C 
ATOM     51  C   UNL     1      -0.720  -2.151  -2.961  1.00  0.00    +0.000 C 
ATOM     52  C   UNL     1       0.562  -1.415  -3.373  1.00  0.00    +0.000 C 
ATOM     53  C   UNL     1       0.817  -0.213  -2.457  1.00  0.00    +0.000 C 
ATOM     54  C   UNL     1       1.055  -0.616  -0.965  1.00  0.00    +0.000 C 
ATOM     55  C   UNL     1       0.288   0.388  -0.070  1.00  0.00    +0.000 C 
ATOM     56  C   UNL     1       2.602  -0.612  -0.639  1.00  0.00    +0.000 C 
ATOM     57  C   UNL     1       3.256   0.796  -0.689  1.00  0.00    +0.000 C 
ATOM     58  C   UNL     1       4.747   0.809  -0.302  1.00  0.00    +0.000 C 
ATOM     59  C   UNL     1       4.976   0.144   1.059  1.00  0.00    +0.000 C 
ATOM     60  C   UNL     1       6.450  -0.174   1.428  1.00  0.00    +0.000 C 
ATOM     61  C   UNL     1       7.332   1.014   1.890  1.00  0.00    +0.000 C 
ATOM     62  C   UNL     1       8.073   1.623   0.691  1.00  0.00    +0.000 C 
ATOM     63  C   UNL     1       8.318   0.533   2.989  1.00  0.00    +0.000 C 
ATOM     64  C   UNL     1       7.570  -0.162   4.162  1.00  0.00    +0.000 C 
ATOM     65  O   UNL     1       6.311  -0.719   3.791  1.00  0.00    +0.000 OA
BRANCH  63  66
ATOM     66  C   UNL     1       9.313   1.571   3.483  1.00  0.00    +0.000 C 
ATOM     67  C   UNL     1       9.099   2.798   4.000  1.00  0.00    +0.000 C 
ATOM     68  C   UNL     1      10.264   3.675   4.385  1.00  0.00    +0.000 C 
ATOM     69  C   UNL     1       7.757   3.424   4.261  1.00  0.00    +0.000 C 
ENDBRANCH  63  66
BRANCH  64  70
ATOM     70  O   UNL     1       8.367  -1.173   4.770  1.00  0.00    +0.000 OA
ATOM     71  H   UNL     1       8.788  -1.683   4.063  1.00  0.00    +0.000 HD
ENDBRANCH  64  70
BRANCH  59  72
ATOM     72  C   UNL     1       4.308   0.980   2.170  1.00  0.00    +0.000 C 
ATOM     73  O   UNL     1       4.099   2.188   2.088  1.00  0.00    +0.000 OA
ENDBRANCH  59  72
ENDBRANCH  42  51
ENDBRANCH   1  42
TORSDOF 20
