REMARK  Name = SANCDB_00995_minRM1.pdb
AUTHORGENERATED BY OPEN BABEL 2.3.2
REMARK  8 active torsions:
REMARK  status: ('A' for Active; 'I' for Inactive)
REMARK    1  A    between atoms: C_1  and  C_2
REMARK    2  A    between atoms: C_5  and  C_23
REMARK    3  A    between atoms: C_7  and  C_8
REMARK    4  A    between atoms: C_7  and  C_9
REMARK    5  A    between atoms: C_9  and  C_10
REMARK    6  A    between atoms: C_10  and  C_11
REMARK    7  A    between atoms: C_19  and  C_20
REMARK    8  A    between atoms: C_20  and  O_22
REMARK                            x       y       z     vdW  Elec       q    Type
REMARK                         _______ _______ _______ _____ _____    ______ ____
ROOT
ATOM      1  C   UNL     1       1.198  -0.944  -2.832  1.00  0.00    +0.000 C 
ATOM      2  C   UNL     1       0.355  -1.033  -1.543  1.00  0.00    +0.000 C 
ATOM      3  C   UNL     1      -1.052  -1.454  -2.003  1.00  0.00    +0.000 C 
ATOM      4  C   UNL     1      -2.071  -1.547  -0.880  1.00  0.00    +0.000 C 
ATOM      5  C   UNL     1      -2.265  -0.207  -0.141  1.00  0.00    +0.000 C 
ATOM      6  C   UNL     1      -0.844   0.208   0.408  1.00  0.00    +0.000 C 
ATOM      7  C   UNL     1       0.384   0.244  -0.616  1.00  0.00    +0.000 C 
ATOM      8  C   UNL     1       0.406   1.545  -1.447  1.00  0.00    +0.000 C 
ATOM      9  C   UNL     1      -0.982   1.461   1.305  1.00  0.00    +0.000 C 
ATOM     10  C   UNL     1      -1.872   1.175   2.516  1.00  0.00    +0.000 C 
ATOM     11  C   UNL     1      -3.033   0.278   2.226  1.00  0.00    +0.000 C 
ATOM     12  C   UNL     1      -3.231  -0.356   1.051  1.00  0.00    +0.000 C 
ATOM     13  C   UNL     1      -2.910   0.838  -1.080  1.00  0.00    +0.000 C 
ENDROOT
BRANCH  12  14
ATOM     14  C   UNL     1      -4.463  -1.174   0.902  1.00  0.00    +0.000 C 
ATOM     15  O   UNL     1      -5.066  -1.389  -0.133  1.00  0.00    +0.000 OA
BRANCH  14  16
ATOM     16  O   UNL     1      -4.874  -1.723   2.059  1.00  0.00    +0.000 OA
ATOM     17  H   UNL     1      -5.667  -2.234   1.799  1.00  0.00    +0.000 HD
ENDBRANCH  14  16
ENDBRANCH  12  14
BRANCH   7  18
ATOM     18  C   UNL     1       1.687   0.238   0.291  1.00  0.00    +0.000 C 
BRANCH  18  19
ATOM     19  C   UNL     1       3.059   0.042  -0.362  1.00  0.00    +0.000 C 
BRANCH  19  20
ATOM     20  C   UNL     1       4.174   0.238   0.616  1.00  0.00    +0.000 A 
ATOM     21  C   UNL     1       4.877   1.401   0.859  1.00  0.00    +0.000 A 
ATOM     22  O   UNL     1       5.819   1.206   1.817  1.00  0.00    +0.000 OA
ATOM     23  C   UNL     1       5.729  -0.093   2.198  1.00  0.00    +0.000 A 
ATOM     24  C   UNL     1       4.737  -0.732   1.493  1.00  0.00    +0.000 A 
ENDBRANCH  19  20
ENDBRANCH  18  19
ENDBRANCH   7  18
TORSDOF 5
