REMARK  Name = SANCDB_00869_minRM1.pdb
AUTHORGENERATED BY OPEN BABEL 2.3.2
REMARK  21 active torsions:
REMARK  status: ('A' for Active; 'I' for Inactive)
REMARK    1  A    between atoms: C_1  and  C_2
REMARK    2  A    between atoms: C_6  and  C_59
REMARK    3  A    between atoms: C_12  and  C_58
REMARK    4  A    between atoms: C_20  and  C_57
REMARK    5  A    between atoms: C_23  and  O_25
REMARK    6  A    between atoms: O_25  and  C_26
REMARK    7  A    between atoms: C_27  and  O_46
REMARK    8  A    between atoms: C_28  and  O_45
REMARK    9  A    between atoms: C_29  and  O_34
REMARK   10  A    between atoms: C_30  and  C_32
REMARK   11  A    between atoms: C_32  and  O_33
REMARK   12  A    between atoms: O_34  and  C_35
REMARK   13  A    between atoms: C_36  and  O_44
REMARK   14  A    between atoms: C_37  and  O_43
REMARK   15  A    between atoms: C_38  and  O_42
REMARK   16  A    between atoms: C_39  and  C_41
REMARK   17  A    between atoms: O_46  and  C_47
REMARK   18  A    between atoms: C_48  and  O_56
REMARK   19  A    between atoms: C_49  and  O_55
REMARK   20  A    between atoms: C_50  and  O_54
REMARK   21  A    between atoms: C_51  and  C_53
REMARK                            x       y       z     vdW  Elec       q    Type
REMARK                         _______ _______ _______ _____ _____    ______ ____
ROOT
ATOM      1  C   UNL     1      -3.488  -0.183  -1.073  1.00  0.00    +0.000 C 
ATOM      2  C   UNL     1      -3.994   0.513   0.217  1.00  0.00    +0.000 C 
ATOM      3  C   UNL     1      -4.716   1.828  -0.136  1.00  0.00    +0.000 C 
ATOM      4  C   UNL     1      -5.779   1.638  -1.237  1.00  0.00    +0.000 C 
ATOM      5  C   UNL     1      -5.275   0.791  -2.426  1.00  0.00    +0.000 C 
ATOM      6  O   UNL     1      -4.525  -0.367  -2.039  1.00  0.00    +0.000 OA
ENDROOT
BRANCH   3   7
ATOM      7  O   UNL     1      -3.780   2.870  -0.432  1.00  0.00    +0.000 OA
ATOM      8  H   UNL     1      -3.611   2.879  -1.398  1.00  0.00    +0.000 HD
ENDBRANCH   3   7
BRANCH   1   9
ATOM      9  O   UNL     1      -2.386   0.511  -1.673  1.00  0.00    +0.000 OA
BRANCH   9  32
ATOM     10  C   UNL     1      12.822   1.767   3.372  1.00  0.00    +0.000 C 
ATOM     11  C   UNL     1      12.053   0.755   2.525  1.00  0.00    +0.000 C 
ATOM     12  C   UNL     1      11.702   1.347   1.159  1.00  0.00    +0.000 C 
ATOM     13  C   UNL     1      10.844   0.368   0.358  1.00  0.00    +0.000 C 
ATOM     14  C   UNL     1       9.611  -0.104   1.149  1.00  0.00    +0.000 C 
ATOM     15  C   UNL     1       8.759  -1.089   0.313  1.00  0.00    +0.000 C 
ATOM     16  C   UNL     1       7.335  -0.874   0.830  1.00  0.00    +0.000 C 
ATOM     17  C   UNL     1       7.418   0.489   1.548  1.00  0.00    +0.000 C 
ATOM     18  O   UNL     1       8.724   1.015   1.344  1.00  0.00    +0.000 OA
ATOM     19  C   UNL     1       6.298   1.372   0.996  1.00  0.00    +0.000 C 
ATOM     20  C   UNL     1       5.284   0.318   0.567  1.00  0.00    +0.000 C 
ATOM     21  C   UNL     1       6.157  -0.718  -0.180  1.00  0.00    +0.000 C 
ATOM     22  C   UNL     1       5.303  -1.984  -0.350  1.00  0.00    +0.000 C 
ATOM     23  C   UNL     1       3.998  -1.691  -1.112  1.00  0.00    +0.000 C 
ATOM     24  C   UNL     1       3.172  -0.514  -0.521  1.00  0.00    +0.000 C 
ATOM     25  C   UNL     1       4.038   0.744  -0.213  1.00  0.00    +0.000 C 
ATOM     26  C   UNL     1       3.219   1.768   0.586  1.00  0.00    +0.000 C 
ATOM     27  C   UNL     1       1.819   1.939   0.084  1.00  0.00    +0.000 C 
ATOM     28  C   UNL     1       1.212   1.115  -0.789  1.00  0.00    +0.000 C 
ATOM     29  C   UNL     1       1.886  -0.140  -1.362  1.00  0.00    +0.000 C 
ATOM     30  C   UNL     1       0.889  -1.334  -1.290  1.00  0.00    +0.000 C 
ATOM     31  C   UNL     1      -0.514  -1.021  -1.810  1.00  0.00    +0.000 C 
ATOM     32  C   UNL     1      -1.117   0.186  -1.089  1.00  0.00    +0.000 C 
ATOM     33  C   UNL     1      -0.201   1.404  -1.246  1.00  0.00    +0.000 C 
ATOM     34  C   UNL     1       2.242   0.142  -2.841  1.00  0.00    +0.000 C 
ATOM     35  C   UNL     1       6.626  -0.224  -1.572  1.00  0.00    +0.000 C 
ATOM     36  C   UNL     1       9.192  -2.551   0.346  1.00  0.00    +0.000 C 
ATOM     37  N   UNL     1      10.014  -0.659   2.443  1.00  0.00    +0.000 NA
ATOM     38  C   UNL     1      10.781   0.295   3.246  1.00  0.00    +0.000 C 
ATOM     39  H   UNL     1       9.183  -0.926   2.963  1.00  0.00    +0.000 HD
ENDBRANCH   9  32
ENDBRANCH   1   9
BRANCH   5  40
ATOM     40  C   UNL     1      -4.559   1.609  -3.515  1.00  0.00    +0.000 C 
BRANCH  40  41
ATOM     41  O   UNL     1      -3.470   2.371  -3.011  1.00  0.00    +0.000 OA
ATOM     42  H   UNL     1      -2.766   1.708  -2.819  1.00  0.00    +0.000 HD
ENDBRANCH  40  41
ENDBRANCH   5  40
BRANCH   4  43
ATOM     43  O   UNL     1      -6.898   0.959  -0.627  1.00  0.00    +0.000 OA
BRANCH  43  44
ATOM     44  C   UNL     1      -8.166   1.301  -1.195  1.00  0.00    +0.000 C 
ATOM     45  C   UNL     1      -9.193   0.275  -0.657  1.00  0.00    +0.000 C 
ATOM     46  C   UNL     1     -10.017   0.906   0.456  1.00  0.00    +0.000 C 
ATOM     47  C   UNL     1     -10.737   2.169  -0.042  1.00  0.00    +0.000 C 
ATOM     48  C   UNL     1      -9.834   3.037  -0.940  1.00  0.00    +0.000 C 
ATOM     49  O   UNL     1      -8.464   2.650  -0.815  1.00  0.00    +0.000 OA
ATOM     50  C   UNL     1     -10.275   3.073  -2.401  1.00  0.00    +0.000 C 
BRANCH  47  51
ATOM     51  O   UNL     1     -11.151   2.904   1.127  1.00  0.00    +0.000 OA
ATOM     52  H   UNL     1     -10.351   3.292   1.527  1.00  0.00    +0.000 HD
ENDBRANCH  47  51
BRANCH  46  53
ATOM     53  O   UNL     1     -11.000  -0.039   0.917  1.00  0.00    +0.000 OA
ATOM     54  H   UNL     1     -11.575   0.461   1.531  1.00  0.00    +0.000 HD
ENDBRANCH  46  53
BRANCH  45  55
ATOM     55  O   UNL     1     -10.092  -0.157  -1.697  1.00  0.00    +0.000 OA
ATOM     56  H   UNL     1     -10.757  -0.704  -1.229  1.00  0.00    +0.000 HD
ENDBRANCH  45  55
ENDBRANCH  43  44
ENDBRANCH   4  43
BRANCH   2  57
ATOM     57  O   UNL     1      -4.922  -0.282   0.978  1.00  0.00    +0.000 OA
BRANCH  57  58
ATOM     58  C   UNL     1      -4.365  -1.420   1.626  1.00  0.00    +0.000 C 
ATOM     59  C   UNL     1      -5.253  -1.782   2.834  1.00  0.00    +0.000 C 
ATOM     60  C   UNL     1      -6.604  -2.317   2.357  1.00  0.00    +0.000 C 
ATOM     61  C   UNL     1      -6.419  -3.453   1.344  1.00  0.00    +0.000 C 
ATOM     62  C   UNL     1      -5.506  -2.976   0.206  1.00  0.00    +0.000 C 
ATOM     63  O   UNL     1      -4.247  -2.522   0.720  1.00  0.00    +0.000 OA
ATOM     64  C   UNL     1      -5.205  -4.092  -0.789  1.00  0.00    +0.000 C 
BRANCH  61  65
ATOM     65  O   UNL     1      -7.720  -3.840   0.881  1.00  0.00    +0.000 OA
ATOM     66  H   UNL     1      -7.612  -4.650   0.352  1.00  0.00    +0.000 HD
ENDBRANCH  61  65
BRANCH  60  67
ATOM     67  O   UNL     1      -7.341  -2.813   3.491  1.00  0.00    +0.000 OA
ATOM     68  H   UNL     1      -8.136  -3.232   3.102  1.00  0.00    +0.000 HD
ENDBRANCH  60  67
BRANCH  59  69
ATOM     69  O   UNL     1      -4.622  -2.773   3.664  1.00  0.00    +0.000 OA
ATOM     70  H   UNL     1      -5.339  -3.087   4.253  1.00  0.00    +0.000 HD
ENDBRANCH  59  69
ENDBRANCH  57  58
ENDBRANCH   2  57
TORSDOF 15
