REMARK  Name = SANCDB_00913_minRM1.pdb
AUTHORGENERATED BY OPEN BABEL 2.3.2
REMARK  12 active torsions:
REMARK  status: ('A' for Active; 'I' for Inactive)
REMARK    1  A    between atoms: C_1  and  C_2
REMARK    2  A    between atoms: C_2  and  C_16
REMARK    3  A    between atoms: C_3  and  C_4
REMARK    4  A    between atoms: C_4  and  C_5
REMARK    5  A    between atoms: C_5  and  C_6
REMARK    6  A    between atoms: C_6  and  C_15
REMARK    7  A    between atoms: C_7  and  C_8
REMARK    8  A    between atoms: C_8  and  C_9
REMARK    9  A    between atoms: C_9  and  C_10
REMARK   10  A    between atoms: C_10  and  C_11
REMARK   11  A    between atoms: C_10  and  C_12
REMARK   12  A    between atoms: C_10  and  O_14
REMARK                            x       y       z     vdW  Elec       q    Type
REMARK                         _______ _______ _______ _____ _____    ______ ____
ROOT
ATOM      1  C   UNL     1       0.697   0.032  -1.639  1.00  0.00    +0.000 C 
ATOM      2  C   UNL     1      -0.189  -0.376  -0.709  1.00  0.00    +0.000 C 
ATOM      3  C   UNL     1       1.041  -0.869  -2.799  1.00  0.00    +0.000 C 
ENDROOT
BRANCH   1   4
ATOM      4  C   UNL     1       1.377   1.387  -1.656  1.00  0.00    +0.000 C 
BRANCH   4   5
ATOM      5  C   UNL     1       2.843   1.362  -1.197  1.00  0.00    +0.000 C 
BRANCH   5   8
ATOM      6  C   UNL     1       3.551   0.068   2.442  1.00  0.00    +0.000 C 
ATOM      7  C   UNL     1       3.461   0.079   0.938  1.00  0.00    +0.000 C 
ATOM      8  C   UNL     1       2.996   1.163   0.288  1.00  0.00    +0.000 C 
ATOM      9  C   UNL     1       3.905  -1.201   0.286  1.00  0.00    +0.000 C 
ENDBRANCH   5   8
ENDBRANCH   4   5
ENDBRANCH   1   4
BRANCH   2  10
ATOM     10  C   UNL     1      -0.649   0.364   0.516  1.00  0.00    +0.000 C 
BRANCH  10  11
ATOM     11  C   UNL     1      -2.105   0.855   0.453  1.00  0.00    +0.000 C 
BRANCH  11  12
ATOM     12  C   UNL     1      -3.216  -0.217   0.537  1.00  0.00    +0.000 C 
ATOM     13  C   UNL     1      -3.071  -1.117   1.770  1.00  0.00    +0.000 C 
BRANCH  12  14
ATOM     14  C   UNL     1      -4.564   0.481   0.588  1.00  0.00    +0.000 C 
ATOM     15  C   UNL     1      -5.491   0.519  -0.382  1.00  0.00    +0.000 C 
ENDBRANCH  12  14
BRANCH  12  16
ATOM     16  O   UNL     1      -3.165  -1.054  -0.616  1.00  0.00    +0.000 OA
ATOM     17  H   UNL     1      -3.909  -1.675  -0.550  1.00  0.00    +0.000 HD
ENDBRANCH  12  16
ENDBRANCH  11  12
ENDBRANCH  10  11
ENDBRANCH   2  10
TORSDOF 8
