REMARK  Name = SANCDB_01034_minRM1.pdb
AUTHORGENERATED BY OPEN BABEL 2.3.2
REMARK  7 active torsions:
REMARK  status: ('A' for Active; 'I' for Inactive)
REMARK    1  A    between atoms: C_1  and  N_2
REMARK    2  A    between atoms: C_5  and  C_12
REMARK    3  A    between atoms: C_8  and  O_11
REMARK    4  A    between atoms: C_14  and  O_20
REMARK    5  A    between atoms: C_15  and  O_18
REMARK    6  A    between atoms: O_18  and  C_19
REMARK    7  A    between atoms: O_20  and  C_21
REMARK                            x       y       z     vdW  Elec       q    Type
REMARK                         _______ _______ _______ _____ _____    ______ ____
ROOT
ATOM      1  C   UNL     1      -2.906   2.788  -0.728  1.00  0.00    +0.000 C 
ATOM      2  N   UNL     1      -1.832   1.842  -0.973  1.00  0.00    +0.000 NA
ATOM      3  C   UNL     1      -1.917   1.196  -2.276  1.00  0.00    +0.000 C 
ATOM      4  C   UNL     1      -0.797   0.172  -2.195  1.00  0.00    +0.000 C 
ATOM      5  C   UNL     1      -0.859  -0.362  -0.736  1.00  0.00    +0.000 C 
ATOM      6  C   UNL     1      -1.647   0.774   0.030  1.00  0.00    +0.000 C 
ATOM      7  C   UNL     1      -2.930   0.271   0.723  1.00  0.00    +0.000 C 
ATOM      8  C   UNL     1      -2.675  -1.009   1.515  1.00  0.00    +0.000 C 
ATOM      9  C   UNL     1      -2.141  -2.144   0.640  1.00  0.00    +0.000 C 
ATOM     10  C   UNL     1      -1.704  -1.669  -0.750  1.00  0.00    +0.000 C 
ENDROOT
BRANCH   5  11
ATOM     11  C   UNL     1       0.583  -0.535  -0.210  1.00  0.00    +0.000 A 
ATOM     12  C   UNL     1       1.388   0.602   0.023  1.00  0.00    +0.000 A 
ATOM     13  C   UNL     1       2.703   0.502   0.501  1.00  0.00    +0.000 A 
ATOM     14  C   UNL     1       3.255  -0.765   0.745  1.00  0.00    +0.000 A 
ATOM     15  C   UNL     1       2.484  -1.901   0.495  1.00  0.00    +0.000 A 
ATOM     16  C   UNL     1       1.171  -1.786   0.018  1.00  0.00    +0.000 A 
BRANCH  14  17
ATOM     17  O   UNL     1       4.545  -0.787   1.212  1.00  0.00    +0.000 OA
ATOM     18  C   UNL     1       5.122  -2.054   1.495  1.00  0.00    +0.000 C 
ENDBRANCH  14  17
BRANCH  13  19
ATOM     19  O   UNL     1       3.521   1.577   0.753  1.00  0.00    +0.000 OA
ATOM     20  C   UNL     1       2.982   2.876   0.556  1.00  0.00    +0.000 C 
ENDBRANCH  13  19
ENDBRANCH   5  11
BRANCH   8  21
ATOM     21  O   UNL     1      -1.772  -0.751   2.588  1.00  0.00    +0.000 OA
ATOM     22  H   UNL     1      -0.866  -0.682   2.236  1.00  0.00    +0.000 HD
ENDBRANCH   8  21
TORSDOF 4
