REMARK  Name = SANCDB_00951_minRM1.pdb
AUTHORGENERATED BY OPEN BABEL 2.3.2
REMARK  4 active torsions:
REMARK  status: ('A' for Active; 'I' for Inactive)
REMARK    1  A    between atoms: C_2  and  C_13
REMARK    2  A    between atoms: C_10  and  O_12
REMARK    3  A    between atoms: C_15  and  O_20
REMARK    4  A    between atoms: C_16  and  O_19
REMARK                            x       y       z     vdW  Elec       q    Type
REMARK                         _______ _______ _______ _____ _____    ______ ____
ROOT
ATOM      1  C   UNL     1       0.160  -0.900   1.578  1.00  0.00    +0.000 C 
ATOM      2  C   UNL     1       0.141   0.323   0.670  1.00  0.00    +0.000 C 
ATOM      3  O   UNL     1      -0.575   0.049  -0.547  1.00  0.00    +0.000 OA
ATOM      4  C   UNL     1      -1.856  -0.382  -0.325  1.00  0.00    +0.000 A 
ATOM      5  C   UNL     1      -2.263  -1.007   0.855  1.00  0.00    +0.000 A 
ATOM      6  C   UNL     1      -1.260  -1.261   1.907  1.00  0.00    +0.000 C 
ATOM      7  O   UNL     1      -1.579  -1.791   2.967  1.00  0.00    +0.000 OA
ATOM      8  C   UNL     1      -3.590  -1.419   1.019  1.00  0.00    +0.000 A 
ATOM      9  C   UNL     1      -4.509  -1.216  -0.012  1.00  0.00    +0.000 A 
ATOM     10  C   UNL     1      -4.088  -0.611  -1.195  1.00  0.00    +0.000 A 
ATOM     11  C   UNL     1      -2.769  -0.198  -1.361  1.00  0.00    +0.000 A 
ENDROOT
BRANCH   2  12
ATOM     12  C   UNL     1       1.558   0.747   0.324  1.00  0.00    +0.000 A 
ATOM     13  C   UNL     1       2.253   0.170  -0.755  1.00  0.00    +0.000 A 
ATOM     14  C   UNL     1       3.558   0.568  -1.028  1.00  0.00    +0.000 A 
ATOM     15  C   UNL     1       4.184   1.525  -0.236  1.00  0.00    +0.000 A 
ATOM     16  C   UNL     1       3.521   2.101   0.836  1.00  0.00    +0.000 A 
ATOM     17  C   UNL     1       2.210   1.712   1.117  1.00  0.00    +0.000 A 
BRANCH  15  18
ATOM     18  O   UNL     1       5.466   1.906  -0.510  1.00  0.00    +0.000 OA
ATOM     19  H   UNL     1       5.715   1.375  -1.293  1.00  0.00    +0.000 HD
ENDBRANCH  15  18
BRANCH  14  20
ATOM     20  O   UNL     1       4.270   0.042  -2.071  1.00  0.00    +0.000 OA
ATOM     21  H   UNL     1       3.691  -0.578  -2.549  1.00  0.00    +0.000 HD
ENDBRANCH  14  20
ENDBRANCH   2  12
BRANCH  10  22
ATOM     22  O   UNL     1      -4.951  -0.403  -2.229  1.00  0.00    +0.000 OA
ATOM     23  H   UNL     1      -5.830  -0.734  -1.981  1.00  0.00    +0.000 HD
ENDBRANCH  10  22
TORSDOF 4
