REMARK  Name = SANCDB_01056_minRM1.pdb
AUTHORGENERATED BY OPEN BABEL 2.3.2
REMARK  3 active torsions:
REMARK  status: ('A' for Active; 'I' for Inactive)
REMARK    1  A    between atoms: C_1  and  C_2
REMARK    2  A    between atoms: C_5  and  C_9
REMARK    3  A    between atoms: C_9  and  C_11
REMARK                            x       y       z     vdW  Elec       q    Type
REMARK                         _______ _______ _______ _____ _____    ______ ____
ROOT
ATOM      1  C   UNL     1       3.714  -0.252   0.166  1.00  0.00    +0.000 C 
ATOM      2  C   UNL     1       2.226  -0.097   0.146  1.00  0.00    +0.000 C 
ATOM      3  C   UNL     1       1.392  -0.739   0.980  1.00  0.00    +0.000 C 
ATOM      4  C   UNL     1      -0.105  -0.630   0.942  1.00  0.00    +0.000 C 
ATOM      5  C   UNL     1      -0.629  -0.070  -0.395  1.00  0.00    +0.000 C 
ATOM      6  C   UNL     1       0.180   1.175  -0.778  1.00  0.00    +0.000 C 
ATOM      7  C   UNL     1       1.659   0.860  -0.852  1.00  0.00    +0.000 C 
ATOM      8  O   UNL     1       2.395   1.422  -1.662  1.00  0.00    +0.000 OA
ENDROOT
BRANCH   5   9
ATOM      9  C   UNL     1      -2.145   0.126  -0.353  1.00  0.00    +0.000 C 
ATOM     10  C   UNL     1      -2.762   1.320  -0.323  1.00  0.00    +0.000 C 
ATOM     11  C   UNL     1      -2.966  -1.141  -0.383  1.00  0.00    +0.000 C 
ENDBRANCH   5   9
TORSDOF 1
