REMARK  Name = /srv/my_project/app/compsite/backup/Dave/CORINA_stuff/newPDBs/SANC00569.pdb
AUTHORGENERATED BY OPEN BABEL 2.3.2
REMARK  10 active torsions:
REMARK  status: ('A' for Active; 'I' for Inactive)
REMARK    1  A    between atoms: C_1  and  O_2
REMARK    2  A    between atoms: O_2  and  C_3
REMARK    3  A    between atoms: C_6  and  C_7
REMARK    4  A    between atoms: C_7  and  C_8
REMARK    5  A    between atoms: C_8  and  O_9
REMARK    6  A    between atoms: C_14  and  O_15
REMARK    7  A    between atoms: O_15  and  C_16
REMARK    8  A    between atoms: C_17  and  O_18
REMARK    9  A    between atoms: C_19  and  O_20
REMARK   10  A    between atoms: C_25  and  O_26
REMARK                            x       y       z     vdW  Elec       q    Type
REMARK                         _______ _______ _______ _____ _____    ______ ____
ROOT
ATOM      1  C   UNL     1       0.016   0.777   0.070  1.00  0.00    +0.000 C 
ATOM      2  C   UNL     1      -0.178  -0.742   0.006  1.00  0.00    +0.000 C 
ATOM      3  O   UNL     1      -1.200  -1.096  -0.943  1.00  0.00    +0.000 OA
ATOM      4  C   UNL     1      -2.408  -0.503  -0.688  1.00  0.00    +0.000 A 
ATOM      5  C   UNL     1      -3.535  -1.151  -1.208  1.00  0.00    +0.000 A 
ATOM      6  C   UNL     1      -4.813  -0.623  -1.002  1.00  0.00    +0.000 A 
ATOM      7  C   UNL     1      -4.934   0.569  -0.276  1.00  0.00    +0.000 A 
ATOM      8  C   UNL     1      -3.812   1.229   0.227  1.00  0.00    +0.000 A 
ATOM      9  C   UNL     1      -2.541   0.695   0.013  1.00  0.00    +0.000 A 
ATOM     10  C   UNL     1      -1.326   1.381   0.489  1.00  0.00    +0.000 C 
ATOM     11  O   UNL     1      -1.452   2.402   1.163  1.00  0.00    +0.000 OA
ENDROOT
BRANCH   1  12
ATOM     12  O   UNL     1       0.352   1.290  -1.227  1.00  0.00    +0.000 OA
ATOM     13  H   UNL     1      -0.174   0.803  -1.888  1.00  0.00    +0.000 HD
ENDBRANCH   1  12
BRANCH   6  14
ATOM     14  O   UNL     1      -5.978  -1.179  -1.455  1.00  0.00    +0.000 OA
ATOM     15  C   UNL     1      -5.886  -2.381  -2.207  1.00  0.00    +0.000 C 
ENDBRANCH   6  14
BRANCH   7  16
ATOM     16  O   UNL     1      -6.170   1.121  -0.050  1.00  0.00    +0.000 OA
ATOM     17  H   UNL     1      -5.995   1.939   0.457  1.00  0.00    +0.000 HD
ENDBRANCH   7  16
BRANCH   8  18
ATOM     18  O   UNL     1      -4.037   2.398   0.911  1.00  0.00    +0.000 OA
ATOM     19  H   UNL     1      -3.164   2.757   1.193  1.00  0.00    +0.000 HD
ENDBRANCH   8  18
BRANCH   1  20
ATOM     20  C   UNL     1       1.093   1.203   1.093  1.00  0.00    +0.000 C 
BRANCH  20  24
ATOM     21  C   UNL     1       4.879  -0.884   0.726  1.00  0.00    +0.000 A 
ATOM     22  C   UNL     1       4.482   0.041  -0.241  1.00  0.00    +0.000 A 
ATOM     23  C   UNL     1       3.264   0.720  -0.115  1.00  0.00    +0.000 A 
ATOM     24  C   UNL     1       2.418   0.481   0.976  1.00  0.00    +0.000 A 
ATOM     25  C   UNL     1       2.818  -0.440   1.952  1.00  0.00    +0.000 A 
ATOM     26  C   UNL     1       4.037  -1.112   1.822  1.00  0.00    +0.000 A 
BRANCH  21  28
ATOM     27  C   UNL     1       6.931  -1.367  -0.388  1.00  0.00    +0.000 C 
ATOM     28  O   UNL     1       6.046  -1.601   0.697  1.00  0.00    +0.000 OA
ENDBRANCH  21  28
BRANCH  26  29
ATOM     29  O   UNL     1       4.418  -2.014   2.781  1.00  0.00    +0.000 OA
ATOM     30  H   UNL     1       3.798  -1.973   3.524  1.00  0.00    +0.000 HD
ENDBRANCH  26  29
ENDBRANCH  20  24
ENDBRANCH   1  20
TORSDOF 8
