REMARK  Name = 
REMARK  6 active torsions:
REMARK  status: ('A' for Active; 'I' for Inactive)
REMARK    1  A    between atoms: C_2  and  C_3
REMARK    2  A    between atoms: C_3  and  C_4
REMARK    3  A    between atoms: C_3  and  C_5
REMARK    4  A    between atoms: C_3  and  C_6
REMARK    5  A    between atoms: C_15  and  C_16
REMARK    6  A    between atoms: CA_21  and  CB_23
REMARK                            x       y       z     vdW  Elec       q    Type
REMARK                         _______ _______ _______ _____ _____    ______ ____
ROOT
ATOM      1  C   UNK A   1      -1.904   0.312   0.412  1.00  0.00    +0.000 A 
ATOM      2  N   UNK A   1      -2.646   1.234  -0.301  1.00  0.00    +0.000 N 
ATOM      3  H   UNK A   1      -3.635   1.165  -0.492  1.00  0.00    +0.000 HD
ATOM      4  C   UNK A   1      -1.868   2.279  -0.739  1.00  0.00    +0.000 A 
ATOM      5  C   UNK A   1      -2.217   3.407  -1.491  1.00  0.00    +0.000 A 
ATOM      6  C   UNK A   1      -1.208   4.327  -1.786  1.00  0.00    +0.000 A 
ATOM      7  C   UNK A   1       0.096   4.128  -1.341  1.00  0.00    +0.000 A 
ATOM      8  C   UNK A   1       0.425   2.994  -0.588  1.00  0.00    +0.000 A 
ATOM      9  C   UNK A   1      -0.574   2.045  -0.285  1.00  0.00    +0.000 A 
ATOM     10  C   UNK A   1      -0.604   0.807   0.427  1.00  0.00    +0.000 A 
ENDROOT
BRANCH  10  11
ATOM     11  C   UNK A   1       0.507   0.177   1.068  1.00  0.00    +0.000 C 
ATOM     12  C   UNK A   1       1.615  -0.283   0.460  1.00  0.00    +0.000 C 
ATOM     13  N   UNK A   1       1.800  -0.227  -0.905  1.00  0.00    +0.000 N 
ATOM     14  C   ALA A   2       2.942  -0.628  -1.556  1.00  0.00    +0.000 C 
ATOM     15  O   ALA A   2       3.022  -0.571  -2.780  1.00  0.00    +0.000 OA
ATOM     16  CA  ALA A   2       4.136  -0.933  -0.635  1.00  0.00    +0.000 C 
ATOM     17  CB  ALA A   2       5.144  -1.841  -1.325  1.00  0.00    +0.000 C 
ATOM     18  N   ALA A   2       3.701  -1.514   0.627  1.00  0.00    +0.000 N 
ATOM     19  C   UNK A   1       2.654  -0.956   1.318  1.00  0.00    +0.000 C 
ATOM     20  O   UNK A   1       2.572  -1.064   2.535  1.00  0.00    +0.000 OA
ATOM     21  H   UNK A   1       1.038   0.095  -1.492  1.00  0.00    +0.000 HD
ATOM     22  H   ALA A   2       4.413  -1.869   1.253  1.00  0.00    +0.000 HD
ENDBRANCH  10  11
BRANCH   1  23
ATOM     23  C   UNK A   1      -2.534  -0.955   1.009  1.00  0.00    +0.000 C 
ATOM     24  C   UNK A   1      -2.704  -0.744   2.532  1.00  0.00    +0.000 C 
ATOM     25  C   UNK A   1      -3.955  -1.202   0.439  1.00  0.00    +0.000 C 
BRANCH  23  27
ATOM     26  C   UNK A   1      -1.761  -3.120  -0.165  1.00  0.00    +0.000 C 
ATOM     27  C   UNK A   1      -1.655  -2.190   0.796  1.00  0.00    +0.000 C 
ENDBRANCH  23  27
ENDBRANCH   1  23
TORSDOF 3
