REMARK  Name = /srv/my_project/app/compsite/backup/Dave/CORINA_stuff/newPDBs/SANC00631.pdb
AUTHORGENERATED BY OPEN BABEL 2.3.2
REMARK  6 active torsions:
REMARK  status: ('A' for Active; 'I' for Inactive)
REMARK    1  A    between atoms: C_1  and  C_2
REMARK    2  A    between atoms: C_3  and  C_4
REMARK    3  A    between atoms: C_5  and  C_6
REMARK    4  A    between atoms: C_7  and  C_8
REMARK    5  A    between atoms: C_9  and  C_10
REMARK    6  A    between atoms: C_11  and  C_12
REMARK                            x       y       z     vdW  Elec       q    Type
REMARK                         _______ _______ _______ _____ _____    ______ ____
ROOT
ATOM      1  C   UNL     1       1.096   0.145  -0.374  1.00  0.00    +0.000 C 
ATOM      2  C   UNL     1      -0.099   0.180  -0.265  1.00  0.00    +0.000 C 
ENDROOT
BRANCH   1   4
ATOM      3  C   UNL     1       3.823   0.067  -0.623  1.00  0.00    +0.000 C 
ATOM      4  C   UNL     1       2.628   0.101  -0.514  1.00  0.00    +0.000 C 
BRANCH   3   7
ATOM      5  C   UNL     1       8.006  -0.054  -1.004  1.00  0.00    +0.000 C 
ATOM      6  C   UNL     1       6.551  -0.012  -0.872  1.00  0.00    +0.000 C 
ATOM      7  C   UNL     1       5.356   0.022  -0.763  1.00  0.00    +0.000 C 
ENDBRANCH   3   7
ENDBRANCH   1   4
BRANCH   2   8
ATOM      8  C   UNL     1      -1.632   0.224  -0.125  1.00  0.00    +0.000 C 
ATOM      9  C   UNL     1      -2.826   0.259  -0.016  1.00  0.00    +0.000 C 
BRANCH   9  10
ATOM     10  C   UNL     1      -4.359   0.303   0.123  1.00  0.00    +0.000 C 
ATOM     11  C   UNL     1      -5.554   0.337   0.232  1.00  0.00    +0.000 C 
BRANCH  11  12
ATOM     12  C   UNL     1      -6.967   0.384   0.362  1.00  0.00    +0.000 C 
ATOM     13  C   UNL     1      -7.710  -0.728   0.340  1.00  0.00    +0.000 C 
ENDBRANCH  11  12
ENDBRANCH   9  10
ENDBRANCH   2   8
TORSDOF 5
