REMARK  Name = SANCDB_00882_minRM1.pdb
AUTHORGENERATED BY OPEN BABEL 2.3.2
REMARK  7 active torsions:
REMARK  status: ('A' for Active; 'I' for Inactive)
REMARK    1  A    between atoms: C_1  and  C_2
REMARK    2  A    between atoms: C_2  and  C_24
REMARK    3  A    between atoms: C_3  and  C_4
REMARK    4  A    between atoms: C_4  and  C_5
REMARK    5  A    between atoms: C_6  and  O_23
REMARK    6  A    between atoms: C_10  and  O_11
REMARK    7  A    between atoms: C_13  and  C_17
REMARK                            x       y       z     vdW  Elec       q    Type
REMARK                         _______ _______ _______ _____ _____    ______ ____
ROOT
ATOM      1  C   UNL     1      -1.936   0.881   0.822  1.00  0.00    +0.000 A 
ATOM      2  C   UNL     1      -1.269   1.006  -0.412  1.00  0.00    +0.000 A 
ATOM      3  C   UNL     1       0.114   0.783  -0.512  1.00  0.00    +0.000 A 
ATOM      4  C   UNL     1       0.847   0.418   0.615  1.00  0.00    +0.000 A 
ATOM      5  C   UNL     1       0.209   0.307   1.845  1.00  0.00    +0.000 A 
ATOM      6  C   UNL     1      -1.167   0.525   1.944  1.00  0.00    +0.000 A 
ATOM      7  O   UNL     1       2.195   0.177   0.600  1.00  0.00    +0.000 OA
ATOM      8  C   UNL     1       2.680  -0.223  -0.693  1.00  0.00    +0.000 C 
ATOM      9  C   UNL     1       2.333   0.820  -1.745  1.00  0.00    +0.000 C 
ATOM     10  C   UNL     1       0.840   0.961  -1.786  1.00  0.00    +0.000 C 
ATOM     11  O   UNL     1       0.226   1.264  -2.806  1.00  0.00    +0.000 OA
ENDROOT
BRANCH   8  12
ATOM     12  C   UNL     1       4.182  -0.423  -0.618  1.00  0.00    +0.000 A 
ATOM     13  C   UNL     1       5.000   0.449   0.118  1.00  0.00    +0.000 A 
ATOM     14  C   UNL     1       6.384   0.266   0.154  1.00  0.00    +0.000 A 
ATOM     15  C   UNL     1       6.968  -0.786  -0.548  1.00  0.00    +0.000 A 
ATOM     16  C   UNL     1       6.170  -1.656  -1.288  1.00  0.00    +0.000 A 
ATOM     17  C   UNL     1       4.785  -1.476  -1.325  1.00  0.00    +0.000 A 
ENDBRANCH   8  12
BRANCH   6  18
ATOM     18  O   UNL     1      -1.689   0.363   3.197  1.00  0.00    +0.000 OA
ATOM     19  H   UNL     1      -2.653   0.458   3.175  1.00  0.00    +0.000 HD
ENDBRANCH   6  18
BRANCH   2  20
ATOM     20  O   UNL     1      -2.013   1.367  -1.510  1.00  0.00    +0.000 OA
ATOM     21  H   UNL     1      -1.417   1.419  -2.291  1.00  0.00    +0.000 HD
ENDBRANCH   2  20
BRANCH   1  22
ATOM     22  C   UNL     1      -3.432   1.105   0.902  1.00  0.00    +0.000 C 
BRANCH  22  25
ATOM     23  C   UNL     1      -5.405   0.153  -1.363  1.00  0.00    +0.000 C 
ATOM     24  C   UNL     1      -5.061  -0.604  -0.110  1.00  0.00    +0.000 C 
ATOM     25  C   UNL     1      -4.207  -0.187   0.847  1.00  0.00    +0.000 C 
ATOM     26  C   UNL     1      -5.754  -1.938   0.010  1.00  0.00    +0.000 C 
ENDBRANCH  22  25
ENDBRANCH   1  22
TORSDOF 5
