REMARK  Name = SANCDB01051.pdb
REMARK  11 active torsions:
REMARK  status: ('A' for Active; 'I' for Inactive)
REMARK    1  A    between atoms: C_1  and  C_2
REMARK    2  A    between atoms: C_2  and  C_4
REMARK    3  A    between atoms: C_5  and  O_18
REMARK    4  A    between atoms: C_6  and  O_16
REMARK    5  A    between atoms: C_7  and  O_14
REMARK    6  A    between atoms: C_8  and  O_12
REMARK    7  A    between atoms: C_9  and  O_10
REMARK    8  A    between atoms: O_10  and  C_11
REMARK    9  A    between atoms: O_12  and  C_13
REMARK   10  A    between atoms: O_14  and  C_15
REMARK   11  A    between atoms: O_16  and  C_17
REMARK                            x       y       z     vdW  Elec       q    Type
REMARK                         _______ _______ _______ _____ _____    ______ ____
ROOT
ATOM      1  C   UNL     1      -1.447  -0.531   0.387  1.00  0.00    +0.000 A 
ATOM      2  C   UNL     1      -0.584  -1.588   0.084  1.00  0.00    +0.000 A 
ATOM      3  C   UNL     1       0.738  -1.354  -0.329  1.00  0.00    +0.000 A 
ATOM      4  C   UNL     1       1.178  -0.035  -0.484  1.00  0.00    +0.000 A 
ATOM      5  C   UNL     1       0.330   1.029  -0.136  1.00  0.00    +0.000 A 
ATOM      6  C   UNL     1      -0.992   0.786   0.267  1.00  0.00    +0.000 A 
ENDROOT
BRANCH   1   8
ATOM      7  C   UNL     1      -3.059  -1.669   2.011  1.00  0.00    +0.000 C 
ATOM      8  C   UNL     1      -2.840  -0.799   0.803  1.00  0.00    +0.000 C 
ATOM      9  O   UNL     1      -3.773  -0.320   0.163  1.00  0.00    +0.000 OA
ENDBRANCH   1   8
BRANCH   6  10
ATOM     10  O   UNL     1      -1.801   1.827   0.647  1.00  0.00    +0.000 OA
ATOM     11  C   UNL     1      -2.349   2.481  -0.501  1.00  0.00    +0.000 C 
ENDBRANCH   6  10
BRANCH   5  12
ATOM     12  O   UNL     1       0.784   2.322  -0.246  1.00  0.00    +0.000 OA
ATOM     13  C   UNL     1       1.354   2.743   0.994  1.00  0.00    +0.000 C 
ENDBRANCH   5  12
BRANCH   4  14
ATOM     14  O   UNL     1       2.448   0.233  -0.931  1.00  0.00    +0.000 OA
ATOM     15  C   UNL     1       2.419   0.561  -2.322  1.00  0.00    +0.000 C 
ENDBRANCH   4  14
BRANCH   3  16
ATOM     16  O   UNL     1       1.460  -2.493  -0.595  1.00  0.00    +0.000 OA
ATOM     17  C   UNL     1       2.841  -2.436  -0.246  1.00  0.00    +0.000 C 
ENDBRANCH   3  16
BRANCH   2  18
ATOM     18  O   UNL     1      -1.018  -2.887   0.182  1.00  0.00    +0.000 OA
ATOM     19  H   UNL     1      -0.278  -3.440  -0.141  1.00  0.00    +0.000 HD
ENDBRANCH   2  18
TORSDOF 6
