REMARK  Name = SANCDB_00741_minRM1.pdb
AUTHORGENERATED BY OPEN BABEL 2.3.2
REMARK  9 active torsions:
REMARK  status: ('A' for Active; 'I' for Inactive)
REMARK    1  A    between atoms: C_1  and  C_2
REMARK    2  A    between atoms: C_3  and  O_4
REMARK    3  A    between atoms: O_4  and  C_5
REMARK    4  A    between atoms: C_7  and  O_8
REMARK    5  A    between atoms: C_9  and  C_10
REMARK    6  A    between atoms: C_10  and  C_11
REMARK    7  A    between atoms: C_11  and  C_12
REMARK    8  A    between atoms: C_12  and  C_13
REMARK    9  A    between atoms: C_15  and  O_16
REMARK                            x       y       z     vdW  Elec       q    Type
REMARK                         _______ _______ _______ _____ _____    ______ ____
ROOT
ATOM      1  C   UNL     1       3.547   0.276   1.568  1.00  0.00    +0.000 C 
ATOM      2  C   UNL     1       2.330   0.179   0.683  1.00  0.00    +0.000 A 
ATOM      3  C   UNL     1       2.457  -0.192  -0.669  1.00  0.00    +0.000 A 
ATOM      4  C   UNL     1       1.317  -0.280  -1.475  1.00  0.00    +0.000 A 
ATOM      5  C   UNL     1       0.047  -0.037  -0.938  1.00  0.00    +0.000 A 
ATOM      6  C   UNL     1      -0.108   0.276   0.415  1.00  0.00    +0.000 A 
ATOM      7  C   UNL     1       1.046   0.404   1.211  1.00  0.00    +0.000 A 
ENDROOT
BRANCH   3   8
ATOM      8  O   UNL     1       3.734  -0.437  -1.104  1.00  0.00    +0.000 OA
ATOM      9  C   UNL     1       3.913  -0.858  -2.449  1.00  0.00    +0.000 C 
ENDBRANCH   3   8
BRANCH   5  10
ATOM     10  O   UNL     1      -1.036  -0.085  -1.773  1.00  0.00    +0.000 OA
ATOM     11  H   UNL     1      -0.743  -0.232  -2.688  1.00  0.00    +0.000 HD
ENDBRANCH   5  10
BRANCH   6  12
ATOM     12  C   UNL     1      -1.438   0.492   1.053  1.00  0.00    +0.000 C 
ATOM     13  O   UNL     1      -1.502   1.273   2.008  1.00  0.00    +0.000 OA
BRANCH  12  14
ATOM     14  C   UNL     1      -2.655  -0.289   0.602  1.00  0.00    +0.000 C 
BRANCH  14  15
ATOM     15  C   UNL     1      -3.684   0.634  -0.040  1.00  0.00    +0.000 C 
ATOM     16  C   UNL     1      -4.897  -0.139  -0.529  1.00  0.00    +0.000 C 
ENDBRANCH  14  15
ENDBRANCH  12  14
ENDBRANCH   6  12
BRANCH   7  17
ATOM     17  O   UNL     1       0.967   0.747   2.541  1.00  0.00    +0.000 OA
ATOM     18  H   UNL     1       0.065   1.104   2.711  1.00  0.00    +0.000 HD
ENDBRANCH   7  17
TORSDOF 6
