REMARK  Name = /srv/my_project/app/compsite/backup/Dave/CORINA_stuff/newPDBs/SANC00478.pdb
AUTHORGENERATED BY OPEN BABEL 2.3.2
REMARK  15 active torsions:
REMARK  status: ('A' for Active; 'I' for Inactive)
REMARK    1  A    between atoms: C_9  and  C_11
REMARK    2  A    between atoms: C_16  and  C_21
REMARK    3  A    between atoms: C_16  and  C_22
REMARK    4  A    between atoms: C_18  and  O_20
REMARK    5  A    between atoms: C_37  and  C_38
REMARK    6  A    between atoms: C_39  and  O_40
REMARK    7  A    between atoms: C_56  and  C_57
REMARK    8  A    between atoms: C_56  and  C_58
REMARK    9  A    between atoms: C_58  and  O_59
REMARK   10  A    between atoms: C_61  and  O_63
REMARK   11  A    between atoms: C_64  and  C_66
REMARK   12  A    between atoms: C_67  and  O_68
REMARK   13  A    between atoms: C_69  and  C_70
REMARK   14  A    between atoms: C_71  and  O_73
REMARK   15  A    between atoms: C_77  and  C_78
REMARK                            x       y       z     vdW  Elec       q    Type
REMARK                         _______ _______ _______ _____ _____    ______ ____
ROOT
ATOM      1  O   UNL     1       7.999  -1.558   2.489  1.00  0.00    +0.000 OA
ATOM      2  C   UNL     1       7.611  -0.823   1.581  1.00  0.00    +0.000 C 
ATOM      3  C   UNL     1       8.558   0.088   0.783  1.00  0.00    +0.000 C 
ATOM      4  C   UNL     1       7.903   1.441   1.004  1.00  0.00    +0.000 C 
ATOM      5  C   UNL     1       8.573   2.179   1.903  1.00  0.00    +0.000 C 
ATOM      6  C   UNL     1       9.739   1.429   2.466  1.00  0.00    +0.000 C 
ATOM      7  C   UNL     1       9.953   0.309   1.436  1.00  0.00    +0.000 C 
ATOM      8  C   UNL     1      11.090   0.631   0.408  1.00  0.00    +0.000 C 
ATOM      9  C   UNL     1      11.085   2.081  -0.114  1.00  0.00    +0.000 C 
ATOM     10  C   UNL     1      10.990  -0.381  -0.753  1.00  0.00    +0.000 C 
ATOM     11  O   UNL     1       9.753  -0.141  -1.433  1.00  0.00    +0.000 OA
ATOM     12  C   UNL     1       8.623  -0.503  -0.644  1.00  0.00    +0.000 C 
ATOM     13  O   UNL     1      11.047  -1.717  -0.219  1.00  0.00    +0.000 OA
ATOM     14  C   UNL     1      12.340  -2.293  -0.490  1.00  0.00    +0.000 C 
ATOM     15  C   UNL     1      13.178  -1.217  -1.189  1.00  0.00    +0.000 C 
ATOM     16  C   UNL     1      12.130  -0.314  -1.793  1.00  0.00    +0.000 C 
ATOM     17  C   UNL     1      12.965  -2.708   0.843  1.00  0.00    +0.000 C 
ATOM     18  C   UNL     1      12.123  -3.532  -1.361  1.00  0.00    +0.000 C 
ATOM     19  C   UNL     1       6.518   1.664   0.454  1.00  0.00    +0.000 C 
ATOM     20  C   UNL     1       5.980   3.096   0.599  1.00  0.00    +0.000 C 
ATOM     21  C   UNL     1       4.576   3.225   0.009  1.00  0.00    +0.000 C 
ATOM     22  C   UNL     1       3.598   2.200   0.608  1.00  0.00    +0.000 C 
ATOM     23  C   UNL     1       2.193   2.389   0.013  1.00  0.00    +0.000 C 
ATOM     24  C   UNL     1       1.223   1.311   0.406  1.00  0.00    +0.000 A 
ATOM     25  N   UNL     1      -0.086   1.556   0.148  1.00  0.00    +0.000 NA
ATOM     26  C   UNL     1      -0.963   0.565   0.445  1.00  0.00    +0.000 A 
ATOM     27  C   UNL     1      -0.539  -0.644   0.995  1.00  0.00    +0.000 A 
ATOM     28  N   UNL     1       0.771  -0.894   1.239  1.00  0.00    +0.000 NA
ATOM     29  C   UNL     1       1.649   0.095   0.938  1.00  0.00    +0.000 A 
ATOM     30  C   UNL     1       3.096  -0.173   1.257  1.00  0.00    +0.000 C 
ATOM     31  C   UNL     1       4.109   0.723   0.482  1.00  0.00    +0.000 C 
ATOM     32  C   UNL     1       4.133   0.254  -0.999  1.00  0.00    +0.000 C 
ATOM     33  C   UNL     1       5.550   0.633   1.137  1.00  0.00    +0.000 C 
ATOM     34  C   UNL     1       6.137  -0.803   1.159  1.00  0.00    +0.000 C 
ATOM     35  C   UNL     1      -1.501  -1.759   1.296  1.00  0.00    +0.000 C 
ATOM     36  C   UNL     1      -2.960  -1.286   1.369  1.00  0.00    +0.000 C 
ATOM     37  C   UNL     1      -3.907  -2.478   1.567  1.00  0.00    +0.000 C 
ATOM     38  C   UNL     1      -5.356  -2.018   1.715  1.00  0.00    +0.000 C 
ATOM     39  C   UNL     1      -5.792  -1.172   0.514  1.00  0.00    +0.000 C 
ATOM     40  C   UNL     1      -7.186  -0.628   0.585  1.00  0.00    +0.000 C 
ATOM     41  C   UNL     1      -8.015  -0.489   1.629  1.00  0.00    +0.000 C 
ATOM     42  C   UNL     1      -9.175   0.384   1.292  1.00  0.00    +0.000 C 
ATOM     43  O   UNL     1     -10.357  -0.376   1.095  1.00  0.00    +0.000 OA
ATOM     44  C   UNL     1     -11.075   0.198  -0.012  1.00  0.00    +0.000 C 
ATOM     45  O   UNL     1     -11.368  -0.834  -0.975  1.00  0.00    +0.000 OA
ATOM     46  C   UNL     1     -12.761  -0.768  -1.361  1.00  0.00    +0.000 C 
ATOM     47  C   UNL     1     -13.419  -2.083  -0.931  1.00  0.00    +0.000 C 
ATOM     48  C   UNL     1     -13.366   0.453  -0.666  1.00  0.00    +0.000 C 
ATOM     49  C   UNL     1     -12.452   0.654   0.519  1.00  0.00    +0.000 C 
ATOM     50  C   UNL     1     -10.156   1.236  -0.718  1.00  0.00    +0.000 C 
ATOM     51  C   UNL     1     -10.650   2.685  -0.614  1.00  0.00    +0.000 C 
ATOM     52  C   UNL     1      -8.780   1.023  -0.053  1.00  0.00    +0.000 C 
ATOM     53  C   UNL     1      -7.760  -0.016  -0.688  1.00  0.00    +0.000 C 
ATOM     54  C   UNL     1      -8.425  -1.168  -1.475  1.00  0.00    +0.000 C 
ATOM     55  C   UNL     1      -6.609   0.638  -1.526  1.00  0.00    +0.000 C 
ATOM     56  C   UNL     1      -5.388   1.090  -0.700  1.00  0.00    +0.000 C 
ATOM     57  C   UNL     1      -4.851   0.051   0.335  1.00  0.00    +0.000 C 
ATOM     58  C   UNL     1      -3.349  -0.381   0.154  1.00  0.00    +0.000 C 
ATOM     59  C   UNL     1      -3.145  -1.104  -1.200  1.00  0.00    +0.000 C 
ATOM     60  C   UNL     1      -2.420   0.866   0.201  1.00  0.00    +0.000 C 
ENDROOT
BRANCH  16  61
ATOM     61  O   UNL     1      11.722  -0.867  -3.054  1.00  0.00    +0.000 OA
ATOM     62  H   UNL     1      10.755  -0.721  -3.093  1.00  0.00    +0.000 HD
ENDBRANCH  16  61
BRANCH  33  63
ATOM     63  O   UNL     1       5.379   1.021   2.521  1.00  0.00    +0.000 OA
ATOM     64  H   UNL     1       6.247   1.036   2.964  1.00  0.00    +0.000 HD
ENDBRANCH  33  63
BRANCH  49  65
ATOM     65  O   UNL     1     -12.912  -0.197   1.580  1.00  0.00    +0.000 OA
ATOM     66  H   UNL     1     -12.116  -0.670   1.903  1.00  0.00    +0.000 HD
ENDBRANCH  49  65
BRANCH  52  67
ATOM     67  O   UNL     1      -8.131   2.277   0.215  1.00  0.00    +0.000 OA
ATOM     68  H   UNL     1      -7.967   2.739  -0.624  1.00  0.00    +0.000 HD
ENDBRANCH  52  67
BRANCH  55  69
ATOM     69  O   UNL     1      -6.080  -0.252  -2.521  1.00  0.00    +0.000 OA
ATOM     70  H   UNL     1      -6.737  -0.344  -3.231  1.00  0.00    +0.000 HD
ENDBRANCH  55  69
BRANCH  46  71
ATOM     71  C   UNL     1     -12.803  -0.616  -2.893  1.00  0.00    +0.000 C 
BRANCH  71  72
ATOM     72  O   UNL     1     -12.095  -1.678  -3.532  1.00  0.00    +0.000 OA
ATOM     73  H   UNL     1     -11.336  -1.881  -2.950  1.00  0.00    +0.000 HD
ENDBRANCH  71  72
ENDBRANCH  46  71
TORSDOF 7
