REMARK  Name = /srv/my_project/app/compsite/backup/Dave/CORINA_stuff/newPDBs/SANC00573.pdb
AUTHORGENERATED BY OPEN BABEL 2.3.2
REMARK  6 active torsions:
REMARK  status: ('A' for Active; 'I' for Inactive)
REMARK    1  A    between atoms: C_2  and  C_3
REMARK    2  A    between atoms: C_3  and  C_4
REMARK    3  A    between atoms: C_3  and  C_13
REMARK    4  A    between atoms: C_5  and  C_6
REMARK    5  A    between atoms: C_9  and  O_10
REMARK    6  A    between atoms: C_16  and  O_17
REMARK                            x       y       z     vdW  Elec       q    Type
REMARK                         _______ _______ _______ _____ _____    ______ ____
ROOT
ATOM      1  C   UNL     1      -0.883  -0.241   1.182  1.00  0.00    +0.000 C 
ENDROOT
BRANCH   1   2
ATOM      2  C   UNL     1      -2.102  -0.028   0.285  1.00  0.00    +0.000 A 
ATOM      3  C   UNL     1      -2.006   0.690  -0.921  1.00  0.00    +0.000 A 
ATOM      4  C   UNL     1      -3.126   0.867  -1.735  1.00  0.00    +0.000 A 
ATOM      5  C   UNL     1      -4.346   0.323  -1.355  1.00  0.00    +0.000 A 
ATOM      6  C   UNL     1      -4.467  -0.399  -0.173  1.00  0.00    +0.000 A 
ATOM      7  C   UNL     1      -3.346  -0.576   0.643  1.00  0.00    +0.000 A 
BRANCH   5   8
ATOM      8  O   UNL     1      -5.414   0.519  -2.180  1.00  0.00    +0.000 OA
ATOM      9  H   UNL     1      -6.186   0.073  -1.795  1.00  0.00    +0.000 HD
ENDBRANCH   5   8
ENDBRANCH   1   2
BRANCH   1  11
ATOM     10  C   UNL     1       0.373  -2.435   1.204  1.00  0.00    +0.000 C 
ATOM     11  C   UNL     1       0.029  -1.291   0.594  1.00  0.00    +0.000 C 
ENDBRANCH   1  11
BRANCH   1  12
ATOM     12  C   UNL     1      -0.235   1.084   1.554  1.00  0.00    +0.000 C 
ATOM     13  C   UNL     1       0.986   1.609   1.352  1.00  0.00    +0.000 C 
BRANCH  13  14
ATOM     14  C   UNL     1       2.116   1.005   0.649  1.00  0.00    +0.000 A 
ATOM     15  C   UNL     1       3.014   0.178   1.334  1.00  0.00    +0.000 A 
ATOM     16  C   UNL     1       4.097  -0.394   0.662  1.00  0.00    +0.000 A 
ATOM     17  C   UNL     1       4.278  -0.129  -0.692  1.00  0.00    +0.000 A 
ATOM     18  C   UNL     1       3.397   0.696  -1.382  1.00  0.00    +0.000 A 
ATOM     19  C   UNL     1       2.315   1.267  -0.711  1.00  0.00    +0.000 A 
BRANCH  17  20
ATOM     20  O   UNL     1       5.321  -0.667  -1.387  1.00  0.00    +0.000 OA
ATOM     21  H   UNL     1       5.843  -1.218  -0.782  1.00  0.00    +0.000 HD
ENDBRANCH  17  20
ENDBRANCH  13  14
ENDBRANCH   1  12
TORSDOF 6
