REMARK  Name = /srv/my_project/app/compsite/backup/Dave/CORINA_stuff/newPDBs/SANC00541.pdb
AUTHORGENERATED BY OPEN BABEL 2.3.2
REMARK  7 active torsions:
REMARK  status: ('A' for Active; 'I' for Inactive)
REMARK    1  A    between atoms: C_1  and  O_2
REMARK    2  A    between atoms: O_2  and  C_3
REMARK    3  A    between atoms: C_7  and  C_8
REMARK    4  A    between atoms: C_16  and  C_17
REMARK    5  A    between atoms: C_17  and  C_18
REMARK    6  A    between atoms: C_17  and  C_19
REMARK    7  A    between atoms: C_22  and  C_23
REMARK                            x       y       z     vdW  Elec       q    Type
REMARK                         _______ _______ _______ _____ _____    ______ ____
ROOT
ATOM      1  C   UNL     1      -1.067   1.893   0.424  1.00  0.00    +0.000 C 
ATOM      2  C   UNL     1      -2.454   1.217   0.581  1.00  0.00    +0.000 C 
ATOM      3  C   UNL     1      -2.681   0.208  -0.521  1.00  0.00    +0.000 C 
ATOM      4  C   UNL     1      -2.898  -1.116  -0.384  1.00  0.00    +0.000 C 
ATOM      5  C   UNL     1      -3.088  -1.806   0.940  1.00  0.00    +0.000 C 
ATOM      6  C   UNL     1      -2.962  -2.009  -1.615  1.00  0.00    +0.000 C 
ATOM      7  C   UNL     1      -1.749  -2.937  -1.824  1.00  0.00    +0.000 C 
ATOM      8  C   UNL     1      -0.414  -2.325  -1.613  1.00  0.00    +0.000 C 
ATOM      9  C   UNL     1       0.280  -2.990  -0.690  1.00  0.00    +0.000 C 
ATOM     10  C   UNL     1       1.642  -2.804  -0.112  1.00  0.00    +0.000 C 
ATOM     11  C   UNL     1       2.354  -1.477  -0.435  1.00  0.00    +0.000 C 
ATOM     12  C   UNL     1       1.928  -0.192   0.282  1.00  0.00    +0.000 C 
ATOM     13  C   UNL     1       1.019  -0.183   1.281  1.00  0.00    +0.000 C 
ATOM     14  C   UNL     1       0.606   0.953   2.078  1.00  0.00    +0.000 C 
ATOM     15  C   UNL     1      -0.311   1.885   1.744  1.00  0.00    +0.000 C 
ATOM     16  C   UNL     1      -0.692   2.957   2.734  1.00  0.00    +0.000 C 
ATOM     17  C   UNL     1      -0.591  -4.084  -0.233  1.00  0.00    +0.000 C 
ATOM     18  O   UNL     1      -0.298  -4.908   0.614  1.00  0.00    +0.000 OA
ATOM     19  O   UNL     1      -1.777  -4.027  -0.899  1.00  0.00    +0.000 OA
ENDROOT
BRANCH  12  20
ATOM     20  C   UNL     1       2.665   1.080  -0.163  1.00  0.00    +0.000 C 
ATOM     21  C   UNL     1       2.525   1.352  -1.664  1.00  0.00    +0.000 C 
ATOM     22  C   UNL     1       4.143   1.051   0.240  1.00  0.00    +0.000 C 
ENDBRANCH  12  20
BRANCH   1  24
ATOM     23  C   UNL     1      -0.177   3.795  -0.711  1.00  0.00    +0.000 C 
ATOM     24  O   UNL     1      -1.290   3.242  -0.023  1.00  0.00    +0.000 OA
ENDBRANCH   1  24
TORSDOF 2
