REMARK  Name = SANCDB_00787_minRM1.pdb
AUTHORGENERATED BY OPEN BABEL 2.3.2
REMARK  8 active torsions:
REMARK  status: ('A' for Active; 'I' for Inactive)
REMARK    1  A    between atoms: C_1  and  N_2
REMARK    2  A    between atoms: C_9  and  O_10
REMARK    3  A    between atoms: C_9  and  C_26
REMARK    4  A    between atoms: C_12  and  C_25
REMARK    5  A    between atoms: C_13  and  C_23
REMARK    6  A    between atoms: C_13  and  O_24
REMARK    7  A    between atoms: C_26  and  O_27
REMARK    8  A    between atoms: C_26  and  C_28
REMARK                            x       y       z     vdW  Elec       q    Type
REMARK                         _______ _______ _______ _____ _____    ______ ____
ROOT
ATOM      1  C   UNL     1       6.029   0.165  -0.335  1.00  0.00    +0.000 C 
ATOM      2  N   UNL     1       4.601   0.317  -0.041  1.00  0.00    +0.000 NA
ATOM      3  C   UNL     1       4.100  -0.907   0.597  1.00  0.00    +0.000 C 
ATOM      4  C   UNL     1       2.599  -0.900   0.861  1.00  0.00    +0.000 C 
ATOM      5  C   UNL     1       1.761  -0.678  -0.398  1.00  0.00    +0.000 C 
ATOM      6  O   UNL     1       0.389  -0.740   0.042  1.00  0.00    +0.000 OA
ATOM      7  C   UNL     1      -0.388  -1.718  -0.507  1.00  0.00    +0.000 C 
ATOM      8  O   UNL     1      -0.077  -2.370  -1.497  1.00  0.00    +0.000 OA
ATOM      9  C   UNL     1      -1.629  -1.999   0.363  1.00  0.00    +0.000 C 
ATOM     10  C   UNL     1      -2.211  -0.824   1.192  1.00  0.00    +0.000 C 
ATOM     11  C   UNL     1      -3.116   0.260   0.560  1.00  0.00    +0.000 C 
ATOM     12  C   UNL     1      -2.412   1.181  -0.471  1.00  0.00    +0.000 C 
ATOM     13  C   UNL     1      -1.197   1.956   0.103  1.00  0.00    +0.000 C 
ATOM     14  O   UNL     1      -1.058   2.351   1.249  1.00  0.00    +0.000 OA
ATOM     15  O   UNL     1      -0.307   2.169  -0.909  1.00  0.00    +0.000 OA
ATOM     16  C   UNL     1       0.900   2.867  -0.578  1.00  0.00    +0.000 C 
ATOM     17  C   UNL     1       2.037   1.918  -0.319  1.00  0.00    +0.000 C 
ATOM     18  C   UNL     1       3.061   2.225   0.502  1.00  0.00    +0.000 C 
ATOM     19  C   UNL     1       4.364   1.517   0.764  1.00  0.00    +0.000 C 
ATOM     20  C   UNL     1       1.990   0.658  -1.118  1.00  0.00    +0.000 C 
ATOM     21  O   UNL     1       1.977   0.748  -2.349  1.00  0.00    +0.000 OA
ATOM     22  C   UNL     1      -3.367   2.217  -1.078  1.00  0.00    +0.000 C 
ATOM     23  C   UNL     1      -3.821   1.034   1.690  1.00  0.00    +0.000 C 
ENDROOT
BRANCH   9  24
ATOM     24  O   UNL     1      -1.056  -2.863   1.418  1.00  0.00    +0.000 OA
ATOM     25  H   UNL     1      -1.815  -3.389   1.744  1.00  0.00    +0.000 HD
ENDBRANCH   9  24
BRANCH  12  26
ATOM     26  O   UNL     1      -2.005   0.332  -1.553  1.00  0.00    +0.000 OA
ATOM     27  H   UNL     1      -1.379   0.846  -2.104  1.00  0.00    +0.000 HD
ENDBRANCH  12  26
BRANCH   9  28
ATOM     28  C   UNL     1      -2.627  -2.928  -0.383  1.00  0.00    +0.000 C 
ATOM     29  C   UNL     1      -3.283  -2.419  -1.658  1.00  0.00    +0.000 C 
BRANCH  28  30
ATOM     30  O   UNL     1      -3.652  -3.333   0.547  1.00  0.00    +0.000 OA
ATOM     31  H   UNL     1      -4.250  -3.935   0.068  1.00  0.00    +0.000 HD
ENDBRANCH  28  30
ENDBRANCH   9  28
TORSDOF 4
