REMARK  Name = SANCDB_00860_minRM1.pdb
AUTHORGENERATED BY OPEN BABEL 2.3.2
REMARK  16 active torsions:
REMARK  status: ('A' for Active; 'I' for Inactive)
REMARK    1  A    between atoms: C_1  and  C_2
REMARK    2  A    between atoms: C_3  and  C_4
REMARK    3  A    between atoms: C_6  and  O_27
REMARK    4  A    between atoms: C_7  and  O_10
REMARK    5  A    between atoms: O_10  and  C_11
REMARK    6  A    between atoms: C_11  and  C_12
REMARK    7  A    between atoms: C_11  and  C_13
REMARK    8  A    between atoms: C_13  and  C_14
REMARK    9  A    between atoms: C_13  and  O_26
REMARK   10  A    between atoms: C_16  and  O_24
REMARK   11  A    between atoms: C_17  and  O_22
REMARK   12  A    between atoms: C_18  and  O_20
REMARK   13  A    between atoms: O_20  and  C_21
REMARK   14  A    between atoms: O_22  and  C_23
REMARK   15  A    between atoms: O_24  and  C_25
REMARK   16  A    between atoms: O_27  and  C_28
REMARK                            x       y       z     vdW  Elec       q    Type
REMARK                         _______ _______ _______ _____ _____    ______ ____
ROOT
ATOM      1  C   UNL     1      -0.891  -1.236  -0.841  1.00  0.00    +0.000 C 
ENDROOT
BRANCH   1   2
ATOM      2  C   UNL     1      -2.277  -0.655  -0.630  1.00  0.00    +0.000 A 
ATOM      3  C   UNL     1      -3.398  -1.501  -0.587  1.00  0.00    +0.000 A 
ATOM      4  C   UNL     1      -4.679  -0.978  -0.389  1.00  0.00    +0.000 A 
ATOM      5  C   UNL     1      -4.827   0.409  -0.219  1.00  0.00    +0.000 A 
ATOM      6  C   UNL     1      -3.723   1.277  -0.281  1.00  0.00    +0.000 A 
ATOM      7  C   UNL     1      -2.453   0.733  -0.479  1.00  0.00    +0.000 A 
BRANCH   6   8
ATOM      8  O   UNL     1      -3.988   2.612  -0.127  1.00  0.00    +0.000 OA
ATOM      9  C   UNL     1      -2.914   3.520  -0.333  1.00  0.00    +0.000 C 
ENDBRANCH   6   8
BRANCH   5  10
ATOM     10  O   UNL     1      -6.091   0.937  -0.066  1.00  0.00    +0.000 OA
ATOM     11  C   UNL     1      -6.414   1.018   1.321  1.00  0.00    +0.000 C 
ENDBRANCH   5  10
BRANCH   4  12
ATOM     12  O   UNL     1      -5.828  -1.723  -0.330  1.00  0.00    +0.000 OA
ATOM     13  C   UNL     1      -5.732  -3.106  -0.639  1.00  0.00    +0.000 C 
ENDBRANCH   4  12
ENDBRANCH   1   2
BRANCH   1  14
ATOM     14  C   UNL     1       0.054  -1.095   0.384  1.00  0.00    +0.000 C 
ATOM     15  C   UNL     1      -0.566  -1.692   1.650  1.00  0.00    +0.000 C 
BRANCH  14  16
ATOM     16  O   UNL     1       1.255  -1.862   0.128  1.00  0.00    +0.000 OA
BRANCH  16  20
ATOM     17  C   UNL     1       4.645   0.405  -0.742  1.00  0.00    +0.000 A 
ATOM     18  C   UNL     1       4.110   0.439   0.557  1.00  0.00    +0.000 A 
ATOM     19  C   UNL     1       2.974  -0.310   0.890  1.00  0.00    +0.000 A 
ATOM     20  C   UNL     1       2.350  -1.069  -0.112  1.00  0.00    +0.000 A 
ATOM     21  C   UNL     1       2.880  -1.118  -1.401  1.00  0.00    +0.000 A 
ATOM     22  C   UNL     1       4.016  -0.374  -1.718  1.00  0.00    +0.000 A 
BRANCH  17  25
ATOM     23  C   UNL     1       8.025   1.685  -2.142  1.00  0.00    +0.000 C 
ATOM     24  C   UNL     1       6.828   0.842  -1.845  1.00  0.00    +0.000 C 
ATOM     25  C   UNL     1       5.822   1.232  -1.046  1.00  0.00    +0.000 C 
ENDBRANCH  17  25
BRANCH  19  26
ATOM     26  O   UNL     1       2.410  -0.356   2.138  1.00  0.00    +0.000 OA
ATOM     27  C   UNL     1       3.138   0.235   3.205  1.00  0.00    +0.000 C 
ENDBRANCH  19  26
ENDBRANCH  16  20
ENDBRANCH  14  16
ENDBRANCH   1  14
BRANCH   1  28
ATOM     28  O   UNL     1      -0.322  -0.588  -1.988  1.00  0.00    +0.000 OA
ATOM     29  H   UNL     1      -1.031  -0.492  -2.647  1.00  0.00    +0.000 HD
ENDBRANCH   1  28
TORSDOF 10
