REMARK  Name = /srv/my_project/app/compsite/backup/Dave/CORINA_stuff/newPDBs/SANC00523.pdb
AUTHORGENERATED BY OPEN BABEL 2.3.2
REMARK  6 active torsions:
REMARK  status: ('A' for Active; 'I' for Inactive)
REMARK    1  A    between atoms: C_1  and  O_2
REMARK    2  A    between atoms: O_2  and  C_3
REMARK    3  A    between atoms: C_4  and  O_5
REMARK    4  A    between atoms: C_7  and  O_8
REMARK    5  A    between atoms: C_13  and  C_14
REMARK    6  A    between atoms: C_17  and  O_18
REMARK                            x       y       z     vdW  Elec       q    Type
REMARK                         _______ _______ _______ _____ _____    ______ ____
ROOT
ATOM      1  C   UNL     1      -3.429  -0.587  -0.295  1.00  0.00    +0.000 A 
ATOM      2  C   UNL     1      -4.527  -0.146   0.459  1.00  0.00    +0.000 A 
ATOM      3  C   UNL     1      -4.380   0.727   1.529  1.00  0.00    +0.000 A 
ATOM      4  C   UNL     1      -3.107   1.169   1.866  1.00  0.00    +0.000 A 
ATOM      5  C   UNL     1      -1.988   0.715   1.154  1.00  0.00    +0.000 A 
ATOM      6  C   UNL     1      -0.636   1.197   1.499  1.00  0.00    +0.000 C 
ATOM      7  O   UNL     1      -0.484   2.080   2.338  1.00  0.00    +0.000 OA
ATOM      8  C   UNL     1       0.492   0.539   0.795  1.00  0.00    +0.000 C 
ATOM      9  C   UNL     1       1.691   1.148   0.815  1.00  0.00    +0.000 C 
ATOM     10  C   UNL     1       0.129  -0.765   0.168  1.00  0.00    +0.000 C 
ATOM     11  O   UNL     1      -1.061  -0.647  -0.621  1.00  0.00    +0.000 OA
ATOM     12  C   UNL     1      -2.142  -0.180   0.082  1.00  0.00    +0.000 A 
ENDROOT
BRANCH   9  13
ATOM     13  C   UNL     1       2.892   0.607   0.179  1.00  0.00    +0.000 A 
ATOM     14  C   UNL     1       3.854  -0.049   0.956  1.00  0.00    +0.000 A 
ATOM     15  C   UNL     1       4.999  -0.580   0.357  1.00  0.00    +0.000 A 
ATOM     16  C   UNL     1       5.175  -0.450  -1.017  1.00  0.00    +0.000 A 
ATOM     17  C   UNL     1       4.228   0.202  -1.799  1.00  0.00    +0.000 A 
ATOM     18  C   UNL     1       3.084   0.733  -1.201  1.00  0.00    +0.000 A 
BRANCH  16  19
ATOM     19  O   UNL     1       6.276  -0.953  -1.643  1.00  0.00    +0.000 OA
ATOM     20  H   UNL     1       6.860  -1.351  -0.977  1.00  0.00    +0.000 HD
ENDBRANCH  16  19
ENDBRANCH   9  13
BRANCH   1  22
ATOM     21  C   UNL     1      -2.953  -1.353  -2.489  1.00  0.00    +0.000 C 
ATOM     22  O   UNL     1      -3.757  -1.444  -1.317  1.00  0.00    +0.000 OA
ENDBRANCH   1  22
BRANCH   2  23
ATOM     23  O   UNL     1      -5.791  -0.567   0.141  1.00  0.00    +0.000 OA
ATOM     24  H   UNL     1      -5.679  -1.184  -0.608  1.00  0.00    +0.000 HD
ENDBRANCH   2  23
BRANCH   4  25
ATOM     25  O   UNL     1      -3.023   2.049   2.912  1.00  0.00    +0.000 OA
ATOM     26  H   UNL     1      -2.085   2.333   3.003  1.00  0.00    +0.000 HD
ENDBRANCH   4  25
TORSDOF 5
