REMARK  Name = /srv/my_project/app/compsite/backup/Dave/CORINA_stuff/newPDBs/SANC00310.pdb
AUTHORGENERATED BY OPEN BABEL 2.3.2
REMARK  4 active torsions:
REMARK  status: ('A' for Active; 'I' for Inactive)
REMARK    1  A    between atoms: C_4  and  O_6
REMARK    2  A    between atoms: O_6  and  C_7
REMARK    3  A    between atoms: C_22  and  O_23
REMARK    4  A    between atoms: N_25  and  C_26
REMARK                            x       y       z     vdW  Elec       q    Type
REMARK                         _______ _______ _______ _____ _____    ______ ____
ROOT
ATOM      1  C   UNL     1       1.124  -0.660   0.571  1.00  0.00    +0.000 C 
ATOM      2  C   UNL     1       2.591  -0.519   0.105  1.00  0.00    +0.000 C 
ATOM      3  C   UNL     1       2.867   0.873  -0.474  1.00  0.00    +0.000 C 
ATOM      4  C   UNL     1       1.822   1.272  -1.474  1.00  0.00    +0.000 C 
ATOM      5  C   UNL     1       0.610   0.700  -1.556  1.00  0.00    +0.000 C 
ATOM      6  C   UNL     1       0.102  -0.379  -0.589  1.00  0.00    +0.000 C 
ATOM      7  C   UNL     1      -1.281   0.098  -0.097  1.00  0.00    +0.000 A 
ATOM      8  C   UNL     1      -1.440   1.020   0.954  1.00  0.00    +0.000 A 
ATOM      9  C   UNL     1      -2.718   1.423   1.283  1.00  0.00    +0.000 A 
ATOM     10  O   UNL     1      -3.043   2.300   2.271  1.00  0.00    +0.000 OA
ATOM     11  C   UNL     1      -4.480   2.321   2.152  1.00  0.00    +0.000 C 
ATOM     12  O   UNL     1      -4.980   1.498   1.077  1.00  0.00    +0.000 OA
ATOM     13  C   UNL     1      -3.821   0.969   0.602  1.00  0.00    +0.000 A 
ATOM     14  C   UNL     1      -3.711   0.092  -0.454  1.00  0.00    +0.000 A 
ATOM     15  C   UNL     1      -2.427  -0.347  -0.810  1.00  0.00    +0.000 A 
ATOM     16  C   UNL     1      -2.223  -1.251  -1.989  1.00  0.00    +0.000 C 
ATOM     17  O   UNL     1      -1.315  -2.277  -1.642  1.00  0.00    +0.000 OA
ATOM     18  C   UNL     1      -0.016  -1.823  -1.262  1.00  0.00    +0.000 C 
ATOM     19  C   UNL     1       0.507  -2.804  -0.172  1.00  0.00    +0.000 C 
ATOM     20  N   UNL     1       0.746  -2.006   1.036  1.00  0.00    +0.000 NA
ATOM     21  C   UNL     1       1.654  -2.641   1.973  1.00  0.00    +0.000 C 
ENDROOT
BRANCH   3  22
ATOM     22  O   UNL     1       2.854   1.815   0.600  1.00  0.00    +0.000 OA
ATOM     23  C   UNL     1       3.663   2.958   0.354  1.00  0.00    +0.000 C 
ENDBRANCH   3  22
BRANCH  18  24
ATOM     24  O   UNL     1       0.835  -1.968  -2.408  1.00  0.00    +0.000 OA
ATOM     25  H   UNL     1       0.589  -1.260  -3.022  1.00  0.00    +0.000 HD
ENDBRANCH  18  24
TORSDOF 2
