REMARK  Name = SANCDB_00733_minRM1.pdb
AUTHORGENERATED BY OPEN BABEL 2.3.2
REMARK  12 active torsions:
REMARK  status: ('A' for Active; 'I' for Inactive)
REMARK    1  A    between atoms: C_1  and  C_2
REMARK    2  A    between atoms: C_2  and  C_3
REMARK    3  A    between atoms: C_4  and  C_5
REMARK    4  A    between atoms: C_5  and  O_7
REMARK    5  A    between atoms: O_7  and  C_8
REMARK    6  A    between atoms: C_11  and  C_12
REMARK    7  A    between atoms: C_16  and  C_17
REMARK    8  A    between atoms: C_17  and  C_18
REMARK    9  A    between atoms: C_17  and  C_19
REMARK   10  A    between atoms: C_22  and  C_23
REMARK   11  A    between atoms: C_24  and  O_25
REMARK   12  A    between atoms: C_28  and  C_29
REMARK                            x       y       z     vdW  Elec       q    Type
REMARK                         _______ _______ _______ _____ _____    ______ ____
ROOT
ATOM      1  C   UNL     1       1.667  -0.619  -1.409  1.00  0.00    +0.000 C 
ATOM      2  C   UNL     1       0.499   0.061  -2.219  1.00  0.00    +0.000 C 
ATOM      3  C   UNL     1      -0.844   0.674  -1.636  1.00  0.00    +0.000 C 
ATOM      4  C   UNL     1      -0.728   2.182  -1.325  1.00  0.00    +0.000 C 
ATOM      5  C   UNL     1       0.590   2.851  -1.073  1.00  0.00    +0.000 C 
ATOM      6  C   UNL     1      -1.853   2.911  -1.260  1.00  0.00    +0.000 C 
ATOM      7  C   UNL     1      -3.130   2.189  -1.369  1.00  0.00    +0.000 C 
ATOM      8  O   UNL     1      -4.057   2.706  -1.989  1.00  0.00    +0.000 OA
ATOM      9  C   UNL     1      -3.261   0.846  -0.640  1.00  0.00    +0.000 C 
ATOM     10  C   UNL     1      -1.856   0.081  -0.532  1.00  0.00    +0.000 C 
ATOM     11  C   UNL     1      -2.178  -1.441  -0.412  1.00  0.00    +0.000 C 
ATOM     12  C   UNL     1      -1.608  -2.336   0.457  1.00  0.00    +0.000 C 
ATOM     13  C   UNL     1      -2.186  -3.704   0.678  1.00  0.00    +0.000 C 
ATOM     14  C   UNL     1      -0.317  -2.023   1.187  1.00  0.00    +0.000 C 
ATOM     15  C   UNL     1       0.822  -2.983   1.310  1.00  0.00    +0.000 C 
ATOM     16  C   UNL     1       1.752  -2.729   0.366  1.00  0.00    +0.000 C 
ATOM     17  C   UNL     1       1.111  -1.807  -0.616  1.00  0.00    +0.000 C 
ATOM     18  C   UNL     1       0.460  -2.785  -1.652  1.00  0.00    +0.000 C 
ATOM     19  O   UNL     1       0.279  -1.090   0.318  1.00  0.00    +0.000 OA
ENDROOT
BRANCH   9  20
ATOM     20  C   UNL     1      -3.974   1.085   0.738  1.00  0.00    +0.000 C 
ATOM     21  C   UNL     1      -4.312  -0.205   1.492  1.00  0.00    +0.000 C 
ATOM     22  C   UNL     1      -5.282   1.882   0.597  1.00  0.00    +0.000 C 
ENDBRANCH   9  20
BRANCH  14  23
ATOM     23  O   UNL     1      -0.559  -1.454   2.449  1.00  0.00    +0.000 OA
ATOM     24  H   UNL     1      -1.335  -0.888   2.329  1.00  0.00    +0.000 HD
ENDBRANCH  14  23
BRANCH   1  25
ATOM     25  O   UNL     1       2.292   0.361  -0.563  1.00  0.00    +0.000 OA
BRANCH  25  26
ATOM     26  C   UNL     1       3.549   0.054  -0.154  1.00  0.00    +0.000 C 
ATOM     27  O   UNL     1       4.205  -0.910  -0.508  1.00  0.00    +0.000 OA
BRANCH  26  31
ATOM     28  C   UNL     1       6.476   0.730   0.618  1.00  0.00    +0.000 C 
ATOM     29  C   UNL     1       5.238   1.384   1.168  1.00  0.00    +0.000 C 
ATOM     30  C   UNL     1       5.508   2.441   2.207  1.00  0.00    +0.000 C 
ATOM     31  C   UNL     1       3.972   1.100   0.805  1.00  0.00    +0.000 C 
ENDBRANCH  26  31
ENDBRANCH  25  26
ENDBRANCH   1  25
TORSDOF 5
