REMARK  Name = SANCDB_00916_minRM1.pdb
AUTHORGENERATED BY OPEN BABEL 2.3.2
REMARK  5 active torsions:
REMARK  status: ('A' for Active; 'I' for Inactive)
REMARK    1  A    between atoms: C_1  and  C_2
REMARK    2  A    between atoms: C_10  and  C_13
REMARK    3  A    between atoms: C_13  and  C_14
REMARK    4  A    between atoms: C_13  and  C_15
REMARK    5  A    between atoms: C_13  and  O_16
REMARK                            x       y       z     vdW  Elec       q    Type
REMARK                         _______ _______ _______ _____ _____    ______ ____
ROOT
ATOM      1  C   UNL     1      -1.609  -1.075  -1.393  1.00  0.00    +0.000 C 
ATOM      2  C   UNL     1      -1.427  -0.769   0.115  1.00  0.00    +0.000 C 
ATOM      3  C   UNL     1      -2.809  -0.872   0.820  1.00  0.00    +0.000 C 
ATOM      4  C   UNL     1      -3.779   0.245   0.423  1.00  0.00    +0.000 C 
ATOM      5  C   UNL     1      -3.162   1.633   0.591  1.00  0.00    +0.000 C 
ATOM      6  C   UNL     1      -1.814   1.724  -0.090  1.00  0.00    +0.000 C 
ATOM      7  C   UNL     1      -1.564   2.678  -1.002  1.00  0.00    +0.000 C 
ATOM      8  C   UNL     1      -0.833   0.648   0.366  1.00  0.00    +0.000 C 
ATOM      9  C   UNL     1       0.607   0.772  -0.173  1.00  0.00    +0.000 C 
ATOM     10  C   UNL     1       1.557  -0.286   0.438  1.00  0.00    +0.000 C 
ATOM     11  C   UNL     1       0.969  -1.701   0.246  1.00  0.00    +0.000 C 
ATOM     12  C   UNL     1      -0.476  -1.817   0.736  1.00  0.00    +0.000 C 
ENDROOT
BRANCH  10  13
ATOM     13  C   UNL     1       3.021  -0.175  -0.104  1.00  0.00    +0.000 C 
ATOM     14  C   UNL     1       3.959  -1.169   0.599  1.00  0.00    +0.000 C 
ATOM     15  C   UNL     1       3.603   1.236   0.066  1.00  0.00    +0.000 C 
BRANCH  13  16
ATOM     16  O   UNL     1       3.056  -0.502  -1.496  1.00  0.00    +0.000 OA
ATOM     17  H   UNL     1       2.593   0.198  -1.987  1.00  0.00    +0.000 HD
ENDBRANCH  13  16
ENDBRANCH  10  13
TORSDOF 2
