REMARK  Name = /srv/my_project/app/compsite/backup/Dave/CORINA_stuff/newPDBs/SANC00677.pdb
AUTHORGENERATED BY OPEN BABEL 2.3.2
REMARK  10 active torsions:
REMARK  status: ('A' for Active; 'I' for Inactive)
REMARK    1  A    between atoms: C_1  and  O_2
REMARK    2  A    between atoms: O_2  and  C_3
REMARK    3  A    between atoms: C_5  and  C_6
REMARK    4  A    between atoms: C_6  and  C_7
REMARK    5  A    between atoms: C_7  and  C_8
REMARK    6  A    between atoms: C_11  and  O_12
REMARK    7  A    between atoms: C_16  and  O_17
REMARK    8  A    between atoms: O_17  and  C_18
REMARK    9  A    between atoms: C_19  and  O_20
REMARK   10  A    between atoms: O_20  and  C_21
REMARK                            x       y       z     vdW  Elec       q    Type
REMARK                         _______ _______ _______ _____ _____    ______ ____
ROOT
ATOM      1  C   UNL     1      -2.704  -0.735   1.046  1.00  0.00    +0.000 A 
ATOM      2  C   UNL     1      -1.325  -0.932   0.950  1.00  0.00    +0.000 A 
ATOM      3  C   UNL     1      -0.617  -0.500  -0.184  1.00  0.00    +0.000 A 
ATOM      4  C   UNL     1      -1.303   0.143  -1.227  1.00  0.00    +0.000 A 
ATOM      5  C   UNL     1      -2.682   0.351  -1.151  1.00  0.00    +0.000 A 
ATOM      6  C   UNL     1      -3.369  -0.073  -0.000  1.00  0.00    +0.000 A 
ENDROOT
BRANCH   1   8
ATOM      7  C   UNL     1      -2.876  -1.971   3.078  1.00  0.00    +0.000 C 
ATOM      8  O   UNL     1      -3.477  -1.122   2.111  1.00  0.00    +0.000 OA
ENDBRANCH   1   8
BRANCH   5   9
ATOM      9  O   UNL     1      -3.435   0.968  -2.116  1.00  0.00    +0.000 OA
ATOM     10  C   UNL     1      -2.816   1.202  -3.373  1.00  0.00    +0.000 C 
ENDBRANCH   5   9
BRANCH   6  11
ATOM     11  O   UNL     1      -4.736   0.094   0.068  1.00  0.00    +0.000 OA
ATOM     12  C   UNL     1      -5.037   1.344   0.686  1.00  0.00    +0.000 C 
ENDBRANCH   6  11
BRANCH   3  13
ATOM     13  C   UNL     1       0.878  -0.697  -0.266  1.00  0.00    +0.000 C 
BRANCH  13  14
ATOM     14  C   UNL     1       1.638   0.488   0.337  1.00  0.00    +0.000 C 
BRANCH  14  15
ATOM     15  C   UNL     1       3.131   0.290   0.255  1.00  0.00    +0.000 A 
ATOM     16  C   UNL     1       3.816  -0.373   1.283  1.00  0.00    +0.000 A 
ATOM     17  C   UNL     1       5.194  -0.573   1.197  1.00  0.00    +0.000 A 
ATOM     18  C   UNL     1       5.889  -0.115   0.085  1.00  0.00    +0.000 A 
ATOM     19  C   UNL     1       5.228   0.540  -0.948  1.00  0.00    +0.000 A 
ATOM     20  C   UNL     1       3.848   0.741  -0.863  1.00  0.00    +0.000 A 
BRANCH  18  21
ATOM     21  O   UNL     1       7.235  -0.333   0.043  1.00  0.00    +0.000 OA
ATOM     22  H   UNL     1       7.583   0.045  -0.781  1.00  0.00    +0.000 HD
ENDBRANCH  18  21
ENDBRANCH  14  15
ENDBRANCH  13  14
ENDBRANCH   3  13
TORSDOF 7
