REMARK  Name = /srv/my_project/app/compsite/backup/Dave/CORINA_stuff/newPDBs/SANC00298.pdb
AUTHORGENERATED BY OPEN BABEL 2.3.2
REMARK  6 active torsions:
REMARK  status: ('A' for Active; 'I' for Inactive)
REMARK    1  A    between atoms: C_12  and  O_14
REMARK    2  A    between atoms: O_14  and  C_15
REMARK    3  A    between atoms: C_15  and  C_17
REMARK    4  A    between atoms: C_17  and  C_19
REMARK    5  A    between atoms: C_21  and  C_23
REMARK    6  A    between atoms: C_27  and  O_28
REMARK                            x       y       z     vdW  Elec       q    Type
REMARK                         _______ _______ _______ _____ _____    ______ ____
ROOT
ATOM      1  C   UNL     1       0.855   1.589   1.417  1.00  0.00    +0.000 C 
ATOM      2  C   UNL     1       2.061   0.807   1.888  1.00  0.00    +0.000 C 
ATOM      3  C   UNL     1       3.055   0.214   1.180  1.00  0.00    +0.000 C 
ATOM      4  C   UNL     1       3.802  -0.994   1.783  1.00  0.00    +0.000 C 
ATOM      5  C   UNL     1       3.446  -2.417   1.190  1.00  0.00    +0.000 C 
ATOM      6  C   UNL     1       1.976  -2.656   0.839  1.00  0.00    +0.000 C 
ATOM      7  O   UNL     1       1.254  -1.565   1.247  1.00  0.00    +0.000 OA
ATOM      8  C   UNL     1       1.129  -1.720  -0.175  1.00  0.00    +0.000 C 
ATOM      9  C   UNL     1      -0.353  -1.460  -0.350  1.00  0.00    +0.000 C 
ATOM     10  C   UNL     1      -0.841  -0.170   0.425  1.00  0.00    +0.000 C 
ATOM     11  C   UNL     1       0.020   1.118   0.206  1.00  0.00    +0.000 C 
ATOM     12  C   UNL     1      -0.734   2.414  -0.104  1.00  0.00    +0.000 C 
ATOM     13  C   UNL     1      -1.099   2.553  -1.576  1.00  0.00    +0.000 C 
ATOM     14  C   UNL     1       0.283   3.463   0.290  1.00  0.00    +0.000 C 
ATOM     15  O   UNL     1       0.260   4.638  -0.042  1.00  0.00    +0.000 OA
ATOM     16  O   UNL     1       1.245   2.923   1.095  1.00  0.00    +0.000 OA
ATOM     17  C   UNL     1       2.033  -1.248  -1.317  1.00  0.00    +0.000 C 
ATOM     18  O   UNL     1       3.315  -0.735  -0.996  1.00  0.00    +0.000 OA
ATOM     19  C   UNL     1       3.350   0.477  -0.264  1.00  0.00    +0.000 C 
ENDROOT
BRANCH  17  20
ATOM     20  O   UNL     1       1.384  -0.386  -2.239  1.00  0.00    +0.000 OA
ATOM     21  H   UNL     1       1.915  -0.450  -3.051  1.00  0.00    +0.000 HD
ENDBRANCH  17  20
BRANCH  10  22
ATOM     22  O   UNL     1      -2.207   0.093   0.016  1.00  0.00    +0.000 OA
BRANCH  22  23
ATOM     23  C   UNL     1      -3.172  -0.642   0.628  1.00  0.00    +0.000 C 
ATOM     24  O   UNL     1      -2.980  -1.498   1.478  1.00  0.00    +0.000 OA
BRANCH  23  25
ATOM     25  C   UNL     1      -4.536  -0.282   0.139  1.00  0.00    +0.000 C 
ATOM     26  C   UNL     1      -4.755   0.677  -0.777  1.00  0.00    +0.000 C 
ATOM     27  C   UNL     1      -5.655  -1.071   0.751  1.00  0.00    +0.000 C 
ENDBRANCH  23  25
ENDBRANCH  22  23
ENDBRANCH  10  22
TORSDOF 4
