REMARK  Name = /srv/my_project/app/compsite/backup/Dave/CORINA_stuff/newPDBs/SANC00188.pdb
AUTHORGENERATED BY OPEN BABEL 2.3.2
REMARK  9 active torsions:
REMARK  status: ('A' for Active; 'I' for Inactive)
REMARK    1  A    between atoms: C_2  and  C_3
REMARK    2  A    between atoms: C_2  and  C_4
REMARK    3  A    between atoms: C_4  and  C_5
REMARK    4  A    between atoms: C_4  and  C_6
REMARK    5  A    between atoms: C_6  and  C_7
REMARK    6  A    between atoms: C_7  and  C_8
REMARK    7  A    between atoms: C_8  and  C_9
REMARK    8  A    between atoms: C_12  and  O_13
REMARK    9  A    between atoms: C_15  and  C_16
REMARK                            x       y       z     vdW  Elec       q    Type
REMARK                         _______ _______ _______ _____ _____    ______ ____
ROOT
ATOM      1  C   UNL     1       0.054   1.437  -0.053  1.00  0.00    +0.000 C 
ATOM      2  C   UNL     1       0.657   1.786   1.329  1.00  0.00    +0.000 C 
ATOM      3  C   UNL     1      -0.778   2.709  -0.513  1.00  0.00    +0.000 C 
ATOM      4 CL   UNL     1       0.234   4.058  -1.156  1.00  0.00    +0.000 Cl
ATOM      5  C   UNL     1      -1.900   2.401  -1.513  1.00  0.00    +0.000 C 
ATOM      6  C   UNL     1      -2.942   1.425  -0.957  1.00  0.00    +0.000 C 
ATOM      7  C   UNL     1      -2.455   0.509   0.199  1.00  0.00    +0.000 C 
ATOM      8  C   UNL     1      -2.795   1.148   1.567  1.00  0.00    +0.000 C 
ATOM      9  C   UNL     1      -3.205  -0.802   0.177  1.00  0.00    +0.000 C 
ATOM     10  C   UNL     1      -2.715  -2.010   0.433  1.00  0.00    +0.000 C 
ATOM     11  C   UNL     1      -3.709  -3.075   0.330  1.00  0.00    +0.000 C 
ATOM     12  O   UNL     1      -4.905  -2.361  -0.001  1.00  0.00    +0.000 OA
ATOM     13  C   UNL     1      -4.633  -1.026  -0.078  1.00  0.00    +0.000 C 
ATOM     14  O   UNL     1      -5.452  -0.154  -0.301  1.00  0.00    +0.000 OA
ATOM     15  C   UNL     1      -1.325  -2.186   0.848  1.00  0.00    +0.000 C 
ATOM     16  O   UNL     1      -0.905  -3.306   1.121  1.00  0.00    +0.000 OA
ATOM     17  C   UNL     1      -0.484  -0.931   1.008  1.00  0.00    +0.000 C 
ATOM     18  C   UNL     1      -0.918   0.182   0.015  1.00  0.00    +0.000 C 
ENDROOT
BRANCH   5  19
ATOM     19  O   UNL     1      -1.384   1.842  -2.723  1.00  0.00    +0.000 OA
ATOM     20  H   UNL     1      -0.818   2.526  -3.130  1.00  0.00    +0.000 HD
ENDBRANCH   5  19
BRANCH   1  21
ATOM     21  C   UNL     1       1.243   1.182  -1.069  1.00  0.00    +0.000 C 
BRANCH  21  22
ATOM     22  C   UNL     1       2.033  -0.140  -1.101  1.00  0.00    +0.000 C 
BRANCH  22  23
ATOM     23  C   UNL     1       3.099  -0.366  -0.003  1.00  0.00    +0.000 C 
ATOM     24  C   UNL     1       4.223   0.675  -0.074  1.00  0.00    +0.000 C 
BRANCH  23  26
ATOM     25  C   UNL     1       3.860  -2.523  -1.122  1.00  0.00    +0.000 C 
ATOM     26  C   UNL     1       3.702  -1.772  -0.018  1.00  0.00    +0.000 C 
ATOM     27  C   UNL     1       4.114  -2.313   1.329  1.00  0.00    +0.000 C 
ENDBRANCH  23  26
ENDBRANCH  22  23
ENDBRANCH  21  22
ENDBRANCH   1  21
TORSDOF 5
