REMARK  Name = SANCDB_00781_minRM1.pdb
AUTHORGENERATED BY OPEN BABEL 2.3.2
REMARK  5 active torsions:
REMARK  status: ('A' for Active; 'I' for Inactive)
REMARK    1  A    between atoms: C_1  and  N_2
REMARK    2  A    between atoms: C_11  and  C_12
REMARK    3  A    between atoms: C_14  and  C_27
REMARK    4  A    between atoms: C_15  and  C_25
REMARK    5  A    between atoms: C_15  and  O_26
REMARK                            x       y       z     vdW  Elec       q    Type
REMARK                         _______ _______ _______ _____ _____    ______ ____
ROOT
ATOM      1  C   UNL     1       5.325  -1.467  -0.690  1.00  0.00    +0.000 C 
ATOM      2  N   UNL     1       4.145  -0.764  -0.181  1.00  0.00    +0.000 NA
ATOM      3  C   UNL     1       3.831  -1.199   1.182  1.00  0.00    +0.000 C 
ATOM      4  C   UNL     1       2.480  -1.917   1.143  1.00  0.00    +0.000 C 
ATOM      5  C   UNL     1       1.442  -1.106   0.372  1.00  0.00    +0.000 C 
ATOM      6  O   UNL     1       0.157  -1.738   0.498  1.00  0.00    +0.000 OA
ATOM      7  C   UNL     1      -0.703  -1.392  -0.500  1.00  0.00    +0.000 C 
ATOM      8  O   UNL     1      -0.388  -0.921  -1.582  1.00  0.00    +0.000 OA
ATOM      9  C   UNL     1      -2.116  -1.442  -0.051  1.00  0.00    +0.000 C 
ATOM     10  O   UNL     1      -2.976  -2.298  -0.834  1.00  0.00    +0.000 OA
ATOM     11  C   UNL     1      -2.713  -2.729   0.502  1.00  0.00    +0.000 C 
ATOM     12  C   UNL     1      -1.961  -4.010   0.590  1.00  0.00    +0.000 C 
ATOM     13  C   UNL     1      -2.758  -0.119   0.322  1.00  0.00    +0.000 C 
ATOM     14  C   UNL     1      -3.076   0.765  -0.918  1.00  0.00    +0.000 C 
ATOM     15  C   UNL     1      -2.610   2.243  -0.744  1.00  0.00    +0.000 C 
ATOM     16  C   UNL     1      -1.063   2.357  -0.905  1.00  0.00    +0.000 C 
ATOM     17  O   UNL     1      -0.462   2.497  -1.961  1.00  0.00    +0.000 OA
ATOM     18  O   UNL     1      -0.470   2.324   0.323  1.00  0.00    +0.000 OA
ATOM     19  C   UNL     1       0.927   2.666   0.373  1.00  0.00    +0.000 C 
ATOM     20  C   UNL     1       1.850   1.467   0.318  1.00  0.00    +0.000 C 
ATOM     21  C   UNL     1       3.088   1.575  -0.211  1.00  0.00    +0.000 C 
ATOM     22  C   UNL     1       4.299   0.679  -0.331  1.00  0.00    +0.000 C 
ATOM     23  C   UNL     1       1.321   0.268   1.022  1.00  0.00    +0.000 C 
ATOM     24  O   UNL     1       0.747   0.423   2.105  1.00  0.00    +0.000 OA
ATOM     25  C   UNL     1      -3.219   3.192  -1.787  1.00  0.00    +0.000 C 
ATOM     26  C   UNL     1      -4.584   0.649  -1.208  1.00  0.00    +0.000 C 
ENDROOT
BRANCH  15  27
ATOM     27  O   UNL     1      -3.058   2.737   0.526  1.00  0.00    +0.000 OA
ATOM     28  H   UNL     1      -2.353   2.538   1.173  1.00  0.00    +0.000 HD
ENDBRANCH  15  27
TORSDOF 1
