REMARK  Name = SANCDB_00930_minRM1.pdb
AUTHORGENERATED BY OPEN BABEL 2.3.2
REMARK  6 active torsions:
REMARK  status: ('A' for Active; 'I' for Inactive)
REMARK    1  A    between atoms: C_1  and  C_2
REMARK    2  A    between atoms: C_3  and  C_4
REMARK    3  A    between atoms: C_4  and  C_6
REMARK    4  A    between atoms: C_7  and  C_14
REMARK    5  A    between atoms: C_11  and  C_12
REMARK    6  A    between atoms: C_11  and  C_13
REMARK                            x       y       z     vdW  Elec       q    Type
REMARK                         _______ _______ _______ _____ _____    ______ ____
ROOT
ATOM      1  C   UNL     1      -0.110   0.299   0.121  1.00  0.00    +0.000 C 
ATOM      2  C   UNL     1      -0.944   1.571   0.258  1.00  0.00    +0.000 C 
ATOM      3  C   UNL     1      -2.269   1.589   0.021  1.00  0.00    +0.000 C 
ATOM      4  C   UNL     1      -3.065   0.395  -0.409  1.00  0.00    +0.000 C 
ATOM      5  C   UNL     1      -2.214  -0.820  -0.787  1.00  0.00    +0.000 C 
ATOM      6  C   UNL     1      -0.975  -1.006   0.118  1.00  0.00    +0.000 C 
ATOM      7  C   UNL     1      -0.174  -2.229  -0.375  1.00  0.00    +0.000 C 
ATOM      8  C   UNL     1      -1.427  -1.323   1.565  1.00  0.00    +0.000 C 
ATOM      9  C   UNL     1      -0.208   2.810   0.686  1.00  0.00    +0.000 C 
ENDROOT
BRANCH   1  10
ATOM     10  C   UNL     1       0.753   0.440  -1.151  1.00  0.00    +0.000 C 
ATOM     11  O   UNL     1       0.273   0.697  -2.258  1.00  0.00    +0.000 OA
BRANCH  10  14
ATOM     12  C   UNL     1       4.454  -0.292  -0.088  1.00  0.00    +0.000 C 
ATOM     13  C   UNL     1       2.965  -0.154  -0.044  1.00  0.00    +0.000 C 
ATOM     14  C   UNL     1       2.239   0.274  -1.087  1.00  0.00    +0.000 C 
ENDBRANCH  10  14
ENDBRANCH   1  10
TORSDOF 2
