REMARK  Name = /srv/my_project/app/compsite/backup/Dave/CORINA_stuff/newPDBs/SANC00455.pdb
AUTHORGENERATED BY OPEN BABEL 2.3.2
REMARK  32 active torsions:
REMARK  status: ('A' for Active; 'I' for Inactive)
REMARK    1  A    between atoms: C_2  and  O_3
REMARK    2  A    between atoms: O_3  and  C_4
REMARK    3  A    between atoms: C_8  and  C_9
REMARK    4  A    between atoms: C_18  and  O_20
REMARK    5  A    between atoms: O_20  and  C_21
REMARK    6  A    between atoms: C_21  and  C_23
REMARK    7  A    between atoms: C_23  and  C_24
REMARK    8  A    between atoms: C_25  and  C_26
REMARK    9  A    between atoms: C_27  and  C_28
REMARK   10  A    between atoms: C_29  and  C_31
REMARK   11  A    between atoms: C_31  and  C_32
REMARK   12  A    between atoms: C_36  and  O_37
REMARK   13  A    between atoms: C_40  and  O_42
REMARK   14  A    between atoms: O_42  and  C_43
REMARK   15  A    between atoms: C_44  and  O_46
REMARK   16  A    between atoms: O_46  and  C_47
REMARK   17  A    between atoms: C_50  and  O_52
REMARK   18  A    between atoms: O_52  and  C_53
REMARK   19  A    between atoms: C_54  and  O_56
REMARK   20  A    between atoms: O_56  and  C_57
REMARK   21  A    between atoms: C_60  and  C_62
REMARK   22  A    between atoms: C_63  and  O_65
REMARK   23  A    between atoms: O_65  and  C_66
REMARK   24  A    between atoms: C_69  and  O_71
REMARK   25  A    between atoms: O_71  and  C_72
REMARK   26  A    between atoms: C_73  and  O_75
REMARK   27  A    between atoms: C_76  and  C_78
REMARK   28  A    between atoms: C_80  and  O_82
REMARK   29  A    between atoms: O_82  and  C_83
REMARK   30  A    between atoms: C_84  and  O_86
REMARK   31  A    between atoms: C_87  and  C_89
REMARK   32  A    between atoms: C_91  and  C_93
REMARK                            x       y       z     vdW  Elec       q    Type
REMARK                         _______ _______ _______ _____ _____    ______ ____
ROOT
ATOM      1  C   UNL     1      -1.232  -3.103   2.577  1.00  0.00    +0.000 C 
ATOM      2  C   UNL     1       0.244  -3.458   2.485  1.00  0.00    +0.000 C 
ATOM      3  C   UNL     1       1.055  -2.417   1.693  1.00  0.00    +0.000 C 
ATOM      4  C   UNL     1       0.291  -1.071   1.591  1.00  0.00    +0.000 C 
ATOM      5  C   UNL     1      -0.450  -0.834   2.920  1.00  0.00    +0.000 C 
ATOM      6  C   UNL     1      -1.197   0.498   2.928  1.00  0.00    +0.000 C 
ATOM      7  O   UNL     1      -1.412  -1.852   3.232  1.00  0.00    +0.000 OA
ENDROOT
BRANCH   3   8
ATOM      8  O   UNL     1       2.332  -2.213   2.339  1.00  0.00    +0.000 OA
ATOM      9  C   UNL     1       3.181  -3.355   2.298  1.00  0.00    +0.000 C 
ENDBRANCH   3   8
BRANCH   4  10
ATOM     10  O   UNL     1       1.161   0.035   1.313  1.00  0.00    +0.000 OA
BRANCH  10  11
ATOM     11  C   UNL     1       1.233   0.373  -0.072  1.00  0.00    +0.000 C 
ATOM     12  C   UNL     1       1.919   1.730  -0.179  1.00  0.00    +0.000 C 
ATOM     13  C   UNL     1       3.385   1.674   0.292  1.00  0.00    +0.000 C 
ATOM     14  C   UNL     1       3.936   0.229   0.211  1.00  0.00    +0.000 C 
ATOM     15  C   UNL     1       3.305  -0.440  -1.022  1.00  0.00    +0.000 C 
ATOM     16  C   UNL     1       3.920  -1.795  -1.348  1.00  0.00    +0.000 C 
ATOM     17  O   UNL     1       1.889  -0.635  -0.841  1.00  0.00    +0.000 OA
BRANCH  13  18
ATOM     18  O   UNL     1       4.163   2.542  -0.554  1.00  0.00    +0.000 OA
ATOM     19  C   UNL     1       3.997   3.920  -0.240  1.00  0.00    +0.000 C 
ENDBRANCH  13  18
BRANCH  14  20
ATOM     20  O   UNL     1       5.363   0.152   0.182  1.00  0.00    +0.000 OA
BRANCH  20  21
ATOM     21  C   UNL     1       5.969   0.394   1.450  1.00  0.00    +0.000 C 
ATOM     22  O   UNL     1       6.309   1.768   1.601  1.00  0.00    +0.000 OA
ATOM     23  C   UNL     1       7.615   2.128   1.142  1.00  0.00    +0.000 C 
ATOM     24  C   UNL     1       7.548   3.583   0.684  1.00  0.00    +0.000 C 
ATOM     25  C   UNL     1       8.177   1.201   0.045  1.00  0.00    +0.000 C 
ATOM     26  C   UNL     1       8.302  -0.234   0.612  1.00  0.00    +0.000 C 
ATOM     27  C   UNL     1       7.179  -0.551   1.622  1.00  0.00    +0.000 C 
BRANCH  27  28
ATOM     28  O   UNL     1       7.723  -0.463   2.954  1.00  0.00    +0.000 OA
ATOM     29  H   UNL     1       6.981  -0.512   3.582  1.00  0.00    +0.000 HD
ENDBRANCH  27  28
BRANCH  26  30
ATOM     30  O   UNL     1       8.258  -1.167  -0.489  1.00  0.00    +0.000 OA
ATOM     31  C   UNL     1       8.949  -2.379  -0.208  1.00  0.00    +0.000 C 
ENDBRANCH  26  30
BRANCH  25  32
ATOM     32  O   UNL     1       9.449   1.738  -0.374  1.00  0.00    +0.000 OA
BRANCH  32  33
ATOM     33  C   UNL     1      10.032   1.083  -1.493  1.00  0.00    +0.000 C 
ATOM     34  C   UNL     1      10.607   2.133  -2.434  1.00  0.00    +0.000 C 
ATOM     35  C   UNL     1      11.845   2.800  -1.841  1.00  0.00    +0.000 C 
ATOM     36  C   UNL     1      12.873   1.736  -1.403  1.00  0.00    +0.000 C 
ATOM     37  C   UNL     1      12.223   0.669  -0.509  1.00  0.00    +0.000 C 
ATOM     38  C   UNL     1      12.016   1.139   0.929  1.00  0.00    +0.000 C 
ATOM     39  O   UNL     1      11.027   0.139  -1.097  1.00  0.00    +0.000 OA
BRANCH  36  40
ATOM     40  O   UNL     1      13.452   1.081  -2.545  1.00  0.00    +0.000 OA
ATOM     41  H   UNL     1      12.733   0.623  -3.014  1.00  0.00    +0.000 HD
ENDBRANCH  36  40
BRANCH  35  42
ATOM     42  O   UNL     1      12.347   3.699  -2.844  1.00  0.00    +0.000 OA
ATOM     43  C   UNL     1      13.418   4.516  -2.398  1.00  0.00    +0.000 C 
ENDBRANCH  35  42
ENDBRANCH  32  33
ENDBRANCH  25  32
ENDBRANCH  20  21
ENDBRANCH  14  20
ENDBRANCH  10  11
ENDBRANCH   4  10
BRANCH   1  44
ATOM     44  O   UNL     1      -1.788  -3.097   1.265  1.00  0.00    +0.000 OA
BRANCH  44  45
ATOM     45  C   UNL     1      -3.184  -3.429   1.196  1.00  0.00    +0.000 C 
ATOM     46  C   UNL     1      -4.090  -2.294   1.709  1.00  0.00    +0.000 C 
ATOM     47  C   UNL     1      -4.341  -1.253   0.614  1.00  0.00    +0.000 C 
ATOM     48  C   UNL     1      -5.155  -1.835  -0.590  1.00  0.00    +0.000 C 
ATOM     49  C   UNL     1      -4.644  -1.153  -1.881  1.00  0.00    +0.000 C 
ATOM     50  C   UNL     1      -4.863  -3.335  -0.696  1.00  0.00    +0.000 C 
ATOM     51  C   UNL     1      -5.792  -4.243  -1.034  1.00  0.00    +0.000 C 
ATOM     52  C   UNL     1      -7.224  -3.928  -1.323  1.00  0.00    +0.000 C 
ATOM     53  C   UNL     1      -7.564  -2.423  -1.377  1.00  0.00    +0.000 C 
ATOM     54  C   UNL     1      -6.704  -1.597  -0.383  1.00  0.00    +0.000 C 
ATOM     55  C   UNL     1      -7.113  -0.112  -0.465  1.00  0.00    +0.000 C 
ATOM     56  C   UNL     1      -8.605   0.077  -0.186  1.00  0.00    +0.000 C 
ATOM     57  C   UNL     1      -9.506  -0.691  -1.206  1.00  0.00    +0.000 C 
ATOM     58  C   UNL     1      -9.444  -0.022  -2.596  1.00  0.00    +0.000 C 
ATOM     59  C   UNL     1     -10.953  -0.725  -0.630  1.00  0.00    +0.000 C 
ATOM     60  C   UNL     1     -10.957  -1.904   0.357  1.00  0.00    +0.000 C 
ATOM     61  C   UNL     1      -9.735  -2.774   0.032  1.00  0.00    +0.000 C 
ATOM     62  C   UNL     1      -9.099  -2.191  -1.245  1.00  0.00    +0.000 C 
ATOM     63  C   UNL     1      -3.473  -3.762  -0.285  1.00  0.00    +0.000 C 
BRANCH  59  64
ATOM     64  C   UNL     1     -12.056  -0.919  -1.667  1.00  0.00    +0.000 C 
ATOM     65  C   UNL     1     -12.921   0.273  -1.982  1.00  0.00    +0.000 C 
ATOM     66  O   UNL     1     -12.225  -2.003  -2.228  1.00  0.00    +0.000 OA
ENDBRANCH  59  64
BRANCH  62  67
ATOM     67  O   UNL     1      -9.683  -2.857  -2.372  1.00  0.00    +0.000 OA
ATOM     68  H   UNL     1     -10.662  -2.797  -2.337  1.00  0.00    +0.000 HD
ENDBRANCH  62  67
BRANCH  56  69
ATOM     69  O   UNL     1      -8.931   1.484  -0.251  1.00  0.00    +0.000 OA
BRANCH  69  70
ATOM     70  C   UNL     1      -8.710   2.211   0.875  1.00  0.00    +0.000 C 
ATOM     71  O   UNL     1      -8.264   1.769   1.923  1.00  0.00    +0.000 OA
BRANCH  70  72
ATOM     72  C   UNL     1      -9.114   3.636   0.654  1.00  0.00    +0.000 C 
ATOM     73  C   UNL     1      -9.557   4.030  -0.724  1.00  0.00    +0.000 C 
ATOM     74  C   UNL     1      -9.039   4.453   1.724  1.00  0.00    +0.000 C 
ATOM     75  C   UNL     1      -9.392   5.904   1.804  1.00  0.00    +0.000 C 
ENDBRANCH  70  72
ENDBRANCH  69  70
ENDBRANCH  56  69
ENDBRANCH  44  45
ENDBRANCH   1  44
TORSDOF 19
