REMARK  Name = /srv/my_project/app/compsite/backup/Dave/CORINA_stuff/newPDBs/SANC00450.pdb
AUTHORGENERATED BY OPEN BABEL 2.3.2
REMARK  24 active torsions:
REMARK  status: ('A' for Active; 'I' for Inactive)
REMARK    1  A    between atoms: C_1  and  N_2
REMARK    2  A    between atoms: N_2  and  C_3
REMARK    3  A    between atoms: N_2  and  C_4
REMARK    4  A    between atoms: C_4  and  C_5
REMARK    5  A    between atoms: C_5  and  C_6
REMARK    6  A    between atoms: S_8  and  O_9
REMARK    7  A    between atoms: C_11  and  C_12
REMARK    8  A    between atoms: C_12  and  C_13
REMARK    9  A    between atoms: C_13  and  N_14
REMARK   10  A    between atoms: N_14  and  C_15
REMARK   11  A    between atoms: N_14  and  C_16
REMARK   12  A    between atoms: C_17  and  S_18
REMARK   13  A    between atoms: S_18  and  C_19
REMARK   14  A    between atoms: C_20  and  O_21
REMARK   15  A    between atoms: O_21  and  C_22
REMARK   16  A    between atoms: C_23  and  O_24
REMARK   17  A    between atoms: O_24  and  C_25
REMARK   18  A    between atoms: S_27  and  O_28
REMARK   19  A    between atoms: C_30  and  O_31
REMARK   20  A    between atoms: O_31  and  C_32
REMARK   21  A    between atoms: C_33  and  O_34
REMARK   22  A    between atoms: O_34  and  C_35
REMARK   23  A    between atoms: C_36  and  S_37
REMARK   24  A    between atoms: S_37  and  C_38
REMARK                            x       y       z     vdW  Elec       q    Type
REMARK                         _______ _______ _______ _____ _____    ______ ____
ROOT
ATOM      1  C   UNL     1      -2.657  -0.179  -0.121  1.00  0.00    +0.000 A 
ATOM      2  C   UNL     1      -1.433  -0.748  -0.534  1.00  0.00    +0.000 A 
ATOM      3  S   UNL     1      -0.080   0.131  -1.243  1.00  0.00    +0.000 S 
ATOM      4  C   UNL     1       1.351  -0.237  -0.278  1.00  0.00    +0.000 A 
ATOM      5  C   UNL     1       2.170   0.717   0.371  1.00  0.00    +0.000 A 
ATOM      6  C   UNL     1       3.276   0.225   1.120  1.00  0.00    +0.000 A 
ATOM      7  C   UNL     1       3.585  -1.157   1.107  1.00  0.00    +0.000 A 
ATOM      8  C   UNL     1       2.776  -2.079   0.432  1.00  0.00    +0.000 A 
ATOM      9  C   UNL     1       1.627  -1.621  -0.205  1.00  0.00    +0.000 A 
ATOM     10  S   UNL     1       0.414  -2.723  -0.873  1.00  0.00    +0.000 S 
ATOM     11  C   UNL     1      -1.197  -2.135  -0.423  1.00  0.00    +0.000 A 
ATOM     12  C   UNL     1      -2.185  -2.994   0.055  1.00  0.00    +0.000 A 
ATOM     13  C   UNL     1      -3.449  -2.464   0.343  1.00  0.00    +0.000 A 
ATOM     14  C   UNL     1      -3.683  -1.069   0.306  1.00  0.00    +0.000 A 
ATOM     15  H   UNL     1       0.119  -0.296  -2.513  1.00  0.00    +0.000 HD
ATOM     16  H   UNL     1       0.540  -2.854  -2.214  1.00  0.00    +0.000 HD
ENDROOT
BRANCH   3  17
ATOM     17  O   UNL     1      -0.372   1.712  -1.323  1.00  0.00    +0.000 OA
ATOM     18  H   UNL     1      -0.570   2.060  -2.226  1.00  0.00    +0.000 HD
ENDBRANCH   3  17
BRANCH   6  19
ATOM     19  S   UNL     1       4.317   1.319   2.122  1.00  0.00    +0.000 S 
ATOM     20  C   UNL     1       3.695   0.859   3.760  1.00  0.00    +0.000 C 
ENDBRANCH   6  19
BRANCH   7  21
ATOM     21  O   UNL     1       4.655  -1.633   1.836  1.00  0.00    +0.000 OA
ATOM     22  C   UNL     1       5.847  -1.634   1.050  1.00  0.00    +0.000 C 
ENDBRANCH   7  21
BRANCH   8  23
ATOM     23  O   UNL     1       3.138  -3.399   0.489  1.00  0.00    +0.000 OA
ATOM     24  C   UNL     1       3.682  -3.835  -0.755  1.00  0.00    +0.000 C 
ENDBRANCH   8  23
BRANCH  10  25
ATOM     25  O   UNL     1       0.612  -4.171  -0.174  1.00  0.00    +0.000 OA
ATOM     26  H   UNL     1      -0.205  -4.728  -0.163  1.00  0.00    +0.000 HD
ENDBRANCH  10  25
BRANCH  12  27
ATOM     27  O   UNL     1      -1.925  -4.338   0.174  1.00  0.00    +0.000 OA
ATOM     28  C   UNL     1      -2.132  -4.806   1.516  1.00  0.00    +0.000 C 
ENDBRANCH  12  27
BRANCH  13  29
ATOM     29  O   UNL     1      -4.474  -3.310   0.710  1.00  0.00    +0.000 OA
ATOM     30  C   UNL     1      -5.075  -3.885  -0.453  1.00  0.00    +0.000 C 
ENDBRANCH  13  29
BRANCH  14  31
ATOM     31  S   UNL     1      -5.327  -0.460   0.769  1.00  0.00    +0.000 S 
ATOM     32  C   UNL     1      -5.210  -0.689   2.563  1.00  0.00    +0.000 C 
ENDBRANCH  14  31
BRANCH   1  33
ATOM     33  C   UNL     1      -2.913   1.318  -0.113  1.00  0.00    +0.000 C 
BRANCH  33  34
ATOM     34  C   UNL     1      -3.491   1.822  -1.450  1.00  0.00    +0.000 C 
BRANCH  34  36
ATOM     35  C   UNL     1      -5.046   3.536  -0.694  1.00  0.00    +0.000 C 
ATOM     36  N   UNL     1      -3.881   3.242  -1.528  1.00  0.00    +0.000 NA
ATOM     37  C   UNL     1      -2.784   4.155  -1.223  1.00  0.00    +0.000 C 
ENDBRANCH  34  36
ENDBRANCH  33  34
ENDBRANCH   1  33
BRANCH   5  38
ATOM     38  C   UNL     1       1.903   2.209   0.283  1.00  0.00    +0.000 C 
BRANCH  38  39
ATOM     39  C   UNL     1       2.353   2.839  -1.055  1.00  0.00    +0.000 C 
BRANCH  39  40
ATOM     40  N   UNL     1       3.812   3.021  -1.196  1.00  0.00    +0.000 NA
ATOM     41  C   UNL     1       4.289   4.168  -0.420  1.00  0.00    +0.000 C 
ATOM     42  C   UNL     1       4.173   3.200  -2.603  1.00  0.00    +0.000 C 
ENDBRANCH  39  40
ENDBRANCH  38  39
ENDBRANCH   5  38
TORSDOF 14
