REMARK  Name = /srv/my_project/app/compsite/backup/Dave/CORINA_stuff/newPDBs/SANC00223.pdb
AUTHORGENERATED BY OPEN BABEL 2.3.2
REMARK  6 active torsions:
REMARK  status: ('A' for Active; 'I' for Inactive)
REMARK    1  A    between atoms: C_1  and  O_2
REMARK    2  A    between atoms: O_2  and  C_3
REMARK    3  A    between atoms: C_5  and  O_6
REMARK    4  A    between atoms: C_18  and  O_19
REMARK    5  A    between atoms: C_20  and  O_21
REMARK    6  A    between atoms: O_21  and  C_22
REMARK                            x       y       z     vdW  Elec       q    Type
REMARK                         _______ _______ _______ _____ _____    ______ ____
ROOT
ATOM      1  C   UNL     1       4.440  -1.016   0.252  1.00  0.00    +0.000 A 
ATOM      2  C   UNL     1       3.939  -0.871   1.549  1.00  0.00    +0.000 A 
ATOM      3  C   UNL     1       2.629  -0.445   1.757  1.00  0.00    +0.000 A 
ATOM      4  C   UNL     1       1.797  -0.170   0.667  1.00  0.00    +0.000 A 
ATOM      5  C   UNL     1       0.418   0.332   0.851  1.00  0.00    +0.000 C 
ATOM      6  O   UNL     1       0.007   0.476   2.005  1.00  0.00    +0.000 OA
ATOM      7  C   UNL     1      -0.346   0.644  -0.469  1.00  0.00    +0.000 C 
ATOM      8  C   UNL     1       0.144  -0.248  -1.596  1.00  0.00    +0.000 C 
ATOM      9  O   UNL     1       1.560  -0.094  -1.770  1.00  0.00    +0.000 OA
ATOM     10  C   UNL     1       2.287  -0.338  -0.632  1.00  0.00    +0.000 A 
ATOM     11  C   UNL     1       3.611  -0.743  -0.837  1.00  0.00    +0.000 A 
ATOM     12  C   UNL     1      -0.511   2.167  -0.846  1.00  0.00    +0.000 C 
ATOM     13  C   UNL     1      -1.987   1.953  -0.671  1.00  0.00    +0.000 A 
ATOM     14  C   UNL     1      -3.212   2.567  -0.740  1.00  0.00    +0.000 A 
ATOM     15  C   UNL     1      -4.316   1.786  -0.412  1.00  0.00    +0.000 A 
ATOM     16  C   UNL     1      -4.196   0.433  -0.020  1.00  0.00    +0.000 A 
ATOM     17  C   UNL     1      -2.931  -0.158   0.031  1.00  0.00    +0.000 A 
ATOM     18  C   UNL     1      -1.850   0.634  -0.304  1.00  0.00    +0.000 A 
ENDROOT
BRANCH   1  20
ATOM     19  C   UNL     1       6.311  -1.572  -1.109  1.00  0.00    +0.000 C 
ATOM     20  O   UNL     1       5.742  -1.428   0.186  1.00  0.00    +0.000 OA
ENDBRANCH   1  20
BRANCH   3  21
ATOM     21  O   UNL     1       2.227  -0.310   3.058  1.00  0.00    +0.000 OA
ATOM     22  H   UNL     1       1.300   0.023   3.060  1.00  0.00    +0.000 HD
ENDBRANCH   3  21
BRANCH  15  23
ATOM     23  O   UNL     1      -5.555   2.369  -0.471  1.00  0.00    +0.000 OA
ATOM     24  H   UNL     1      -6.175   1.668  -0.192  1.00  0.00    +0.000 HD
ENDBRANCH  15  23
BRANCH  16  25
ATOM     25  O   UNL     1      -5.386  -0.186   0.274  1.00  0.00    +0.000 OA
ATOM     26  C   UNL     1      -5.301  -1.515   0.776  1.00  0.00    +0.000 C 
ENDBRANCH  16  25
TORSDOF 4
