REMARK  Name = /srv/my_project/app/compsite/backup/Dave/CORINA_stuff/newPDBs/SANC00272.pdb
AUTHORGENERATED BY OPEN BABEL 2.3.2
REMARK  6 active torsions:
REMARK  status: ('A' for Active; 'I' for Inactive)
REMARK    1  A    between atoms: C_1  and  C_2
REMARK    2  A    between atoms: C_2  and  C_5
REMARK    3  A    between atoms: C_6  and  C_7
REMARK    4  A    between atoms: C_7  and  C_10
REMARK    5  A    between atoms: C_10  and  C_11
REMARK    6  A    between atoms: C_10  and  C_13
REMARK                            x       y       z     vdW  Elec       q    Type
REMARK                         _______ _______ _______ _____ _____    ______ ____
ROOT
ATOM      1  C   UNL     1      -0.894  -0.357   0.882  1.00  0.00    +0.000 C 
ATOM      2 CL   UNL     1      -1.180  -1.270   2.415  1.00  0.00    +0.000 Cl
ENDROOT
BRANCH   1   3
ATOM      3  C   UNL     1      -1.822  -0.843  -0.285  1.00  0.00    +0.000 C 
ATOM      4  C   UNL     1      -1.541  -0.067  -1.585  1.00  0.00    +0.000 C 
ATOM      5 CL   UNL     1      -1.457  -2.597  -0.686  1.00  0.00    +0.000 Cl
BRANCH   3   6
ATOM      6  C   UNL     1      -3.309  -0.804   0.070  1.00  0.00    +0.000 C 
ATOM      7  C   UNL     1      -4.111   0.241   0.320  1.00  0.00    +0.000 C 
ATOM      8 BR   UNL     1      -3.693   2.042   0.327  1.00  0.00    +0.000 Br
ENDBRANCH   3   6
ENDBRANCH   1   3
BRANCH   1  10
ATOM      9  C   UNL     1       1.387   0.652   0.500  1.00  0.00    +0.000 C 
ATOM     10  C   UNL     1       0.593  -0.428   0.598  1.00  0.00    +0.000 C 
BRANCH   9  12
ATOM     11  C   UNL     1       3.510  -0.690   0.073  1.00  0.00    +0.000 C 
ATOM     12  C   UNL     1       2.822   0.645   0.228  1.00  0.00    +0.000 C 
ATOM     13  C   UNL     1       3.557   1.767   0.113  1.00  0.00    +0.000 C 
ATOM     14 BR   UNL     1       3.001   3.534   0.248  1.00  0.00    +0.000 Br
ENDBRANCH   9  12
ENDBRANCH   1  10
TORSDOF 4
