REMARK  Name = SANCDB_01037_minRM1.pdb
AUTHORGENERATED BY OPEN BABEL 2.3.2
REMARK  9 active torsions:
REMARK  status: ('A' for Active; 'I' for Inactive)
REMARK    1  A    between atoms: C_1  and  C_2
REMARK    2  A    between atoms: C_5  and  C_31
REMARK    3  A    between atoms: C_10  and  C_23
REMARK    4  A    between atoms: C_14  and  C_22
REMARK    5  A    between atoms: C_17  and  O_21
REMARK    6  A    between atoms: C_18  and  C_19
REMARK    7  A    between atoms: C_18  and  C_20
REMARK    8  A    between atoms: C_26  and  C_29
REMARK    9  A    between atoms: C_26  and  C_30
REMARK                            x       y       z     vdW  Elec       q    Type
REMARK                         _______ _______ _______ _____ _____    ______ ____
ROOT
ATOM      1  C   UNL     1      -3.826   2.054   1.319  1.00  0.00    +0.000 C 
ATOM      2  C   UNL     1      -3.816   1.232   0.006  1.00  0.00    +0.000 C 
ATOM      3  C   UNL     1      -3.031   2.002  -1.080  1.00  0.00    +0.000 C 
ATOM      4  C   UNL     1      -1.538   2.109  -0.773  1.00  0.00    +0.000 C 
ATOM      5  C   UNL     1      -0.819   0.739  -0.590  1.00  0.00    +0.000 C 
ATOM      6  C   UNL     1      -1.640  -0.173   0.344  1.00  0.00    +0.000 C 
ATOM      7  C   UNL     1      -1.045  -0.985   1.242  1.00  0.00    +0.000 C 
ATOM      8  C   UNL     1       0.432  -1.127   1.461  1.00  0.00    +0.000 C 
ATOM      9  C   UNL     1       1.294  -0.451   0.374  1.00  0.00    +0.000 C 
ATOM     10  C   UNL     1       0.692   0.960   0.003  1.00  0.00    +0.000 C 
ATOM     11  C   UNL     1       1.609   1.660  -1.036  1.00  0.00    +0.000 C 
ATOM     12  C   UNL     1       3.095   1.641  -0.680  1.00  0.00    +0.000 C 
ATOM     13  C   UNL     1       3.602   0.192  -0.539  1.00  0.00    +0.000 C 
ATOM     14  C   UNL     1       2.867  -0.559   0.623  1.00  0.00    +0.000 C 
ATOM     15  C   UNL     1       3.266  -2.078   0.574  1.00  0.00    +0.000 C 
ATOM     16  C   UNL     1       4.510  -2.405  -0.260  1.00  0.00    +0.000 C 
ATOM     17  C   UNL     1       5.627  -1.378  -0.114  1.00  0.00    +0.000 C 
ATOM     18  C   UNL     1       5.177   0.051  -0.565  1.00  0.00    +0.000 C 
ATOM     19  C   UNL     1       5.904   1.156   0.231  1.00  0.00    +0.000 C 
ATOM     20  C   UNL     1       5.634   0.214  -2.045  1.00  0.00    +0.000 C 
ATOM     21  C   UNL     1       3.288  -0.024   2.013  1.00  0.00    +0.000 C 
ATOM     22  C   UNL     1       0.625   1.883   1.258  1.00  0.00    +0.000 C 
ATOM     23  C   UNL     1      -3.172  -0.159   0.291  1.00  0.00    +0.000 C 
ATOM     24  C   UNL     1      -3.747  -1.238  -0.649  1.00  0.00    +0.000 C 
ATOM     25  C   UNL     1      -5.264  -1.471  -0.402  1.00  0.00    +0.000 C 
ATOM     26  C   UNL     1      -5.964  -0.172   0.071  1.00  0.00    +0.000 C 
ATOM     27  C   UNL     1      -5.287   1.079  -0.488  1.00  0.00    +0.000 C 
ATOM     28  C   UNL     1      -5.906  -1.968  -1.712  1.00  0.00    +0.000 C 
ATOM     29  C   UNL     1      -5.464  -2.563   0.667  1.00  0.00    +0.000 C 
ATOM     30  C   UNL     1      -0.785   0.048  -1.986  1.00  0.00    +0.000 C 
ENDROOT
BRANCH  17  31
ATOM     31  O   UNL     1       6.086  -1.425   1.235  1.00  0.00    +0.000 OA
ATOM     32  H   UNL     1       6.947  -0.976   1.272  1.00  0.00    +0.000 HD
ENDBRANCH  17  31
TORSDOF 1
