REMARK  Name = /srv/my_project/app/compsite/backup/Dave/CORINA_stuff/newPDBs/SANC00380.pdb
AUTHORGENERATED BY OPEN BABEL 2.3.2
REMARK  10 active torsions:
REMARK  status: ('A' for Active; 'I' for Inactive)
REMARK    1  A    between atoms: C_12  and  O_13
REMARK    2  A    between atoms: O_13  and  C_14
REMARK    3  A    between atoms: C_15  and  O_16
REMARK    4  A    between atoms: O_16  and  C_17
REMARK    5  A    between atoms: N_22  and  C_23
REMARK    6  A    between atoms: C_35  and  O_36
REMARK    7  A    between atoms: O_36  and  C_37
REMARK    8  A    between atoms: C_38  and  O_39
REMARK    9  A    between atoms: O_39  and  C_40
REMARK   10  A    between atoms: N_45  and  C_46
REMARK                            x       y       z     vdW  Elec       q    Type
REMARK                         _______ _______ _______ _____ _____    ______ ____
ROOT
ATOM      1  C   UNL     1      -3.164  -2.356  -0.782  1.00  0.00    +0.000 C 
ATOM      2  C   UNL     1      -2.428  -2.698   0.557  1.00  0.00    +0.000 C 
ATOM      3  C   UNL     1      -1.144  -1.954   0.840  1.00  0.00    +0.000 A 
ATOM      4  C   UNL     1      -1.003  -1.201   2.013  1.00  0.00    +0.000 A 
ATOM      5  C   UNL     1       0.187  -0.519   2.279  1.00  0.00    +0.000 A 
ATOM      6  C   UNL     1       1.252  -0.575   1.377  1.00  0.00    +0.000 A 
ATOM      7  C   UNL     1       1.135  -1.362   0.229  1.00  0.00    +0.000 A 
ATOM      8  C   UNL     1      -0.051  -2.055  -0.031  1.00  0.00    +0.000 A 
ATOM      9  O   UNL     1       2.316   0.262   1.665  1.00  0.00    +0.000 OA
ATOM     10  C   UNL     1       3.515   0.055   1.025  1.00  0.00    +0.000 A 
ATOM     11  C   UNL     1       4.224  -1.147   1.273  1.00  0.00    +0.000 A 
ATOM     12  C   UNL     1       5.451  -1.423   0.652  1.00  0.00    +0.000 A 
ATOM     13  C   UNL     1       6.018  -0.445  -0.156  1.00  0.00    +0.000 A 
ATOM     14  C   UNL     1       5.370   0.788  -0.333  1.00  0.00    +0.000 A 
ATOM     15  C   UNL     1       6.039   1.880  -1.131  1.00  0.00    +0.000 C 
ATOM     16  C   UNL     1       5.861   3.257  -0.467  1.00  0.00    +0.000 C 
ATOM     17  N   UNL     1       4.646   3.424   0.358  1.00  0.00    +0.000 NA
ATOM     18  C   UNL     1       4.298   4.835   0.460  1.00  0.00    +0.000 C 
ATOM     19  C   UNL     1       3.559   2.486  -0.066  1.00  0.00    +0.000 C 
ATOM     20  C   UNL     1       2.143   2.888   0.449  1.00  0.00    +0.000 C 
ATOM     21  C   UNL     1       0.915   2.272  -0.199  1.00  0.00    +0.000 A 
ATOM     22  C   UNL     1       0.913   1.672  -1.462  1.00  0.00    +0.000 A 
ATOM     23  C   UNL     1      -0.246   1.060  -1.953  1.00  0.00    +0.000 A 
ATOM     24  C   UNL     1      -1.422   1.040  -1.197  1.00  0.00    +0.000 A 
ATOM     25  C   UNL     1      -1.451   1.706   0.025  1.00  0.00    +0.000 A 
ATOM     26  C   UNL     1      -0.298   2.332   0.508  1.00  0.00    +0.000 A 
ATOM     27  O   UNL     1      -2.444   0.295  -1.744  1.00  0.00    +0.000 OA
ATOM     28  C   UNL     1      -3.638   0.168  -1.069  1.00  0.00    +0.000 A 
ATOM     29  C   UNL     1      -4.522   1.259  -0.971  1.00  0.00    +0.000 A 
ATOM     30  C   UNL     1      -5.772   1.123  -0.349  1.00  0.00    +0.000 A 
ATOM     31  C   UNL     1      -6.176  -0.143   0.072  1.00  0.00    +0.000 A 
ATOM     32  C   UNL     1      -5.341  -1.262  -0.103  1.00  0.00    +0.000 A 
ATOM     33  C   UNL     1      -5.901  -2.636   0.199  1.00  0.00    +0.000 C 
ATOM     34  C   UNL     1      -5.040  -3.827  -0.265  1.00  0.00    +0.000 C 
ATOM     35  N   UNL     1      -4.037  -3.461  -1.270  1.00  0.00    +0.000 NA
ATOM     36  C   UNL     1      -3.291  -4.620  -1.745  1.00  0.00    +0.000 C 
ATOM     37  C   UNL     1      -4.042  -1.111  -0.639  1.00  0.00    +0.000 A 
ATOM     38  C   UNL     1       4.092   1.063   0.232  1.00  0.00    +0.000 A 
ENDROOT
BRANCH  11  39
ATOM     39  O   UNL     1       3.684  -2.106   2.106  1.00  0.00    +0.000 OA
ATOM     40  C   UNL     1       4.083  -1.854   3.452  1.00  0.00    +0.000 C 
ENDBRANCH  11  39
BRANCH  12  41
ATOM     41  O   UNL     1       6.015  -2.642   0.925  1.00  0.00    +0.000 OA
ATOM     42  C   UNL     1       7.188  -2.995   0.207  1.00  0.00    +0.000 C 
ENDBRANCH  12  41
BRANCH  29  43
ATOM     43  O   UNL     1      -4.144   2.496  -1.445  1.00  0.00    +0.000 OA
ATOM     44  C   UNL     1      -4.525   2.625  -2.813  1.00  0.00    +0.000 C 
ENDBRANCH  29  43
BRANCH  30  45
ATOM     45  O   UNL     1      -6.531   2.261  -0.251  1.00  0.00    +0.000 OA
ATOM     46  C   UNL     1      -7.714   2.188   0.531  1.00  0.00    +0.000 C 
ENDBRANCH  30  45
TORSDOF 4
