REMARK  Name = SANCDB_01021_minRM1.pdb
AUTHORGENERATED BY OPEN BABEL 2.3.2
REMARK  8 active torsions:
REMARK  status: ('A' for Active; 'I' for Inactive)
REMARK    1  A    between atoms: C_1  and  C_2
REMARK    2  A    between atoms: C_2  and  C_20
REMARK    3  A    between atoms: C_3  and  C_4
REMARK    4  A    between atoms: C_4  and  C_5
REMARK    5  A    between atoms: C_9  and  O_13
REMARK    6  A    between atoms: C_10  and  O_11
REMARK    7  A    between atoms: O_11  and  C_12
REMARK    8  A    between atoms: O_13  and  C_14
REMARK                            x       y       z     vdW  Elec       q    Type
REMARK                         _______ _______ _______ _____ _____    ______ ____
ROOT
ATOM      1  C   UNL     1      -0.337  -0.039  -0.528  1.00  0.00    +0.000 A 
ATOM      2  C   UNL     1      -0.525   1.237   0.031  1.00  0.00    +0.000 A 
ATOM      3  C   UNL     1      -1.653   1.563   0.789  1.00  0.00    +0.000 A 
ATOM      4  C   UNL     1      -2.640   0.600   0.983  1.00  0.00    +0.000 A 
ATOM      5  C   UNL     1      -2.491  -0.670   0.422  1.00  0.00    +0.000 A 
ATOM      6  C   UNL     1      -1.325  -1.008  -0.286  1.00  0.00    +0.000 A 
ATOM      7  C   UNL     1      -1.772   2.899   1.353  1.00  0.00    +0.000 A 
ATOM      8  C   UNL     1      -0.804   3.796   1.142  1.00  0.00    +0.000 A 
ATOM      9  C   UNL     1       0.395   3.490   0.347  1.00  0.00    +0.000 A 
ATOM     10  O   UNL     1       1.265   4.334   0.170  1.00  0.00    +0.000 OA
ATOM     11  O   UNL     1       0.477   2.212  -0.186  1.00  0.00    +0.000 OA
ENDROOT
BRANCH   6  12
ATOM     12  O   UNL     1      -1.129  -2.267  -0.797  1.00  0.00    +0.000 OA
ATOM     13  C   UNL     1      -0.999  -3.239   0.243  1.00  0.00    +0.000 C 
ENDBRANCH   6  12
BRANCH   5  14
ATOM     14  O   UNL     1      -3.514  -1.558   0.639  1.00  0.00    +0.000 OA
ATOM     15  C   UNL     1      -4.238  -1.796  -0.570  1.00  0.00    +0.000 C 
ENDBRANCH   5  14
BRANCH   1  16
ATOM     16  C   UNL     1       0.913  -0.364  -1.316  1.00  0.00    +0.000 C 
BRANCH  16  19
ATOM     17  C   UNL     1       3.639   1.121  -0.731  1.00  0.00    +0.000 C 
ATOM     18  C   UNL     1       3.212  -0.209  -0.174  1.00  0.00    +0.000 C 
ATOM     19  C   UNL     1       2.042  -0.826  -0.431  1.00  0.00    +0.000 C 
ATOM     20  C   UNL     1       4.224  -0.841   0.748  1.00  0.00    +0.000 C 
ENDBRANCH  16  19
ENDBRANCH   1  16
TORSDOF 4
