REMARK  Name = /srv/my_project/app/compsite/backup/Dave/CORINA_stuff/newPDBs/SANC00527.pdb
AUTHORGENERATED BY OPEN BABEL 2.3.2
REMARK  5 active torsions:
REMARK  status: ('A' for Active; 'I' for Inactive)
REMARK    1  A    between atoms: C_1  and  O_2
REMARK    2  A    between atoms: O_2  and  C_3
REMARK    3  A    between atoms: C_6  and  C_7
REMARK    4  A    between atoms: C_13  and  O_14
REMARK    5  A    between atoms: C_16  and  O_17
REMARK                            x       y       z     vdW  Elec       q    Type
REMARK                         _______ _______ _______ _____ _____    ______ ____
ROOT
ATOM      1  C   UNL     1       0.604  -0.811  -1.679  1.00  0.00    +0.000 C 
ATOM      2  C   UNL     1      -0.673  -0.446  -1.462  1.00  0.00    +0.000 C 
ATOM      3  C   UNL     1      -1.806  -0.837  -2.357  1.00  0.00    +0.000 C 
ATOM      4  O   UNL     1      -2.868  -1.464  -1.628  1.00  0.00    +0.000 OA
ATOM      5  C   UNL     1      -3.308  -0.722  -0.563  1.00  0.00    +0.000 A 
ATOM      6  C   UNL     1      -4.610  -0.973  -0.128  1.00  0.00    +0.000 A 
ATOM      7  C   UNL     1      -5.120  -0.254   0.949  1.00  0.00    +0.000 A 
ATOM      8  C   UNL     1      -4.348   0.701   1.604  1.00  0.00    +0.000 A 
ATOM      9  C   UNL     1      -3.042   0.933   1.183  1.00  0.00    +0.000 A 
ATOM     10  C   UNL     1      -2.514   0.219   0.100  1.00  0.00    +0.000 A 
ATOM     11  C   UNL     1      -1.115   0.409  -0.329  1.00  0.00    +0.000 C 
ATOM     12  O   UNL     1      -0.413   1.251   0.218  1.00  0.00    +0.000 OA
ENDROOT
BRANCH   1  16
ATOM     13  C   UNL     1       4.009   0.045   0.762  1.00  0.00    +0.000 A 
ATOM     14  C   UNL     1       3.886   0.614  -0.506  1.00  0.00    +0.000 A 
ATOM     15  C   UNL     1       2.766   0.335  -1.298  1.00  0.00    +0.000 A 
ATOM     16  C   UNL     1       1.756  -0.509  -0.827  1.00  0.00    +0.000 A 
ATOM     17  C   UNL     1       1.883  -1.084   0.441  1.00  0.00    +0.000 A 
ATOM     18  C   UNL     1       3.003  -0.805   1.228  1.00  0.00    +0.000 A 
BRANCH  13  20
ATOM     19  C   UNL     1       6.057   1.152   1.236  1.00  0.00    +0.000 C 
ATOM     20  O   UNL     1       5.048   0.231   1.631  1.00  0.00    +0.000 OA
ENDBRANCH  13  20
ENDBRANCH   1  16
BRANCH   7  21
ATOM     21  O   UNL     1      -6.391  -0.460   1.400  1.00  0.00    +0.000 OA
ATOM     22  H   UNL     1      -6.808  -1.161   0.871  1.00  0.00    +0.000 HD
ENDBRANCH   7  21
BRANCH   9  23
ATOM     23  O   UNL     1      -2.326   1.869   1.879  1.00  0.00    +0.000 OA
ATOM     24  H   UNL     1      -1.421   1.916   1.492  1.00  0.00    +0.000 HD
ENDBRANCH   9  23
TORSDOF 4
