REMARK  Name = SANCDB_00845_minRM1.pdb
AUTHORGENERATED BY OPEN BABEL 2.3.2
REMARK  8 active torsions:
REMARK  status: ('A' for Active; 'I' for Inactive)
REMARK    1  A    between atoms: C_3  and  O_8
REMARK    2  A    between atoms: C_6  and  O_7
REMARK    3  A    between atoms: O_8  and  C_9
REMARK    4  A    between atoms: C_10  and  O_19
REMARK    5  A    between atoms: C_11  and  O_18
REMARK    6  A    between atoms: C_12  and  O_17
REMARK    7  A    between atoms: C_13  and  C_15
REMARK    8  A    between atoms: C_15  and  O_16
REMARK                            x       y       z     vdW  Elec       q    Type
REMARK                         _______ _______ _______ _____ _____    ______ ____
ROOT
ATOM      1  C   UNL     1      -0.061   0.628   0.034  1.00  0.00    +0.000 C 
ATOM      2  C   UNL     1      -0.893   1.895  -0.259  1.00  0.00    +0.000 C 
ATOM      3  C   UNL     1      -2.232   1.816   0.471  1.00  0.00    +0.000 C 
ATOM      4  C   UNL     1      -2.951   0.508   0.139  1.00  0.00    +0.000 C 
ATOM      5  C   UNL     1      -2.014  -0.675   0.428  1.00  0.00    +0.000 C 
ATOM      6  O   UNL     1      -0.804  -0.540  -0.329  1.00  0.00    +0.000 OA
ENDROOT
BRANCH   4   7
ATOM      7  O   UNL     1      -4.158   0.417   0.904  1.00  0.00    +0.000 OA
ATOM      8  H   UNL     1      -4.585   1.295   0.808  1.00  0.00    +0.000 HD
ENDBRANCH   4   7
BRANCH   3   9
ATOM      9  O   UNL     1      -3.073   2.918   0.097  1.00  0.00    +0.000 OA
ATOM     10  H   UNL     1      -2.504   3.712   0.174  1.00  0.00    +0.000 HD
ENDBRANCH   3   9
BRANCH   2  11
ATOM     11  O   UNL     1      -0.218   3.091   0.162  1.00  0.00    +0.000 OA
ATOM     12  H   UNL     1       0.669   3.057  -0.247  1.00  0.00    +0.000 HD
ENDBRANCH   2  11
BRANCH   1  13
ATOM     13  O   UNL     1       1.134   0.752  -0.752  1.00  0.00    +0.000 OA
BRANCH  13  16
ATOM     14  C   UNL     1       3.311  -1.911   0.645  1.00  0.00    +0.000 A 
ATOM     15  C   UNL     1       2.152  -1.162   0.418  1.00  0.00    +0.000 A 
ATOM     16  C   UNL     1       2.186  -0.065  -0.443  1.00  0.00    +0.000 A 
ATOM     17  C   UNL     1       3.385   0.263  -1.087  1.00  0.00    +0.000 A 
ATOM     18  C   UNL     1       4.544  -0.484  -0.863  1.00  0.00    +0.000 A 
ATOM     19  C   UNL     1       4.495  -1.567   0.007  1.00  0.00    +0.000 A 
BRANCH  19  20
ATOM     20  O   UNL     1       5.598  -2.327   0.260  1.00  0.00    +0.000 OA
ATOM     21  H   UNL     1       6.338  -1.987  -0.269  1.00  0.00    +0.000 HD
ENDBRANCH  19  20
ENDBRANCH  13  16
ENDBRANCH   1  13
BRANCH   5  22
ATOM     22  C   UNL     1      -2.683  -2.010   0.073  1.00  0.00    +0.000 C 
BRANCH  22  23
ATOM     23  O   UNL     1      -3.777  -2.301   0.936  1.00  0.00    +0.000 OA
ATOM     24  H   UNL     1      -4.296  -1.474   1.030  1.00  0.00    +0.000 HD
ENDBRANCH  22  23
ENDBRANCH   5  22
TORSDOF 8
