REMARK  Name = /srv/my_project/app/compsite/backup/Dave/CORINA_stuff/newPDBs/SANC00183.pdb
AUTHORGENERATED BY OPEN BABEL 2.3.2
REMARK  4 active torsions:
REMARK  status: ('A' for Active; 'I' for Inactive)
REMARK    1  A    between atoms: C_1  and  C_2
REMARK    2  A    between atoms: C_12  and  C_14
REMARK    3  A    between atoms: C_12  and  O_21
REMARK    4  A    between atoms: C_26  and  C_33
REMARK                            x       y       z     vdW  Elec       q    Type
REMARK                         _______ _______ _______ _____ _____    ______ ____
ROOT
ATOM      1  C   UNL     1      -1.391  -4.343   0.416  1.00  0.00    +0.000 C 
ATOM      2  C   UNL     1      -1.371  -3.091  -0.464  1.00  0.00    +0.000 C 
ATOM      3  C   UNL     1      -0.176  -3.116  -1.442  1.00  0.00    +0.000 C 
ATOM      4  C   UNL     1       1.171  -2.709  -0.827  1.00  0.00    +0.000 C 
ATOM      5  C   UNL     1       1.242  -1.269  -0.295  1.00  0.00    +0.000 C 
ATOM      6  C   UNL     1       0.921  -0.227  -1.366  1.00  0.00    +0.000 C 
ATOM      7  C   UNL     1       1.036   1.191  -0.804  1.00  0.00    +0.000 C 
ATOM      8  C   UNL     1       1.633   1.203   0.598  1.00  0.00    +0.000 C 
ATOM      9  C   UNL     1       2.826   0.243   0.740  1.00  0.00    +0.000 C 
ATOM     10  O   UNL     1       2.585  -1.037   0.144  1.00  0.00    +0.000 OA
ATOM     11  O   UNL     1      -0.304   1.719  -0.744  1.00  0.00    +0.000 OA
ATOM     12  C   UNL     1      -0.440   3.062  -0.808  1.00  0.00    +0.000 C 
ATOM     13  O   UNL     1       0.458   3.876  -0.946  1.00  0.00    +0.000 OA
ATOM     14  C   UNL     1      -1.874   3.418  -0.795  1.00  0.00    +0.000 C 
ATOM     15  C   UNL     1      -2.802   2.994   0.089  1.00  0.00    +0.000 C 
ATOM     16  C   UNL     1      -2.517   2.126   1.302  1.00  0.00    +0.000 C 
ATOM     17  C   UNL     1      -3.291   0.800   1.394  1.00  0.00    +0.000 C 
ATOM     18  C   UNL     1      -3.022  -0.182   0.285  1.00  0.00    +0.000 C 
ATOM     19  C   UNL     1      -3.878  -1.166  -0.030  1.00  0.00    +0.000 C 
ATOM     20  C   UNL     1      -3.695  -2.157  -1.065  1.00  0.00    +0.000 C 
ATOM     21  C   UNL     1      -2.661  -2.995  -1.250  1.00  0.00    +0.000 C 
ATOM     22  C   UNL     1      -4.226   3.471  -0.040  1.00  0.00    +0.000 C 
ENDROOT
BRANCH   9  23
ATOM     23  C   UNL     1       4.123   0.838   0.080  1.00  0.00    +0.000 C 
ATOM     24  C   UNL     1       5.324  -0.110   0.150  1.00  0.00    +0.000 C 
ATOM     25  S   UNL     1       6.176   0.366   1.683  1.00  0.00    +0.000 S 
ATOM     26  C   UNL     1       5.529   1.992   1.646  1.00  0.00    +0.000 C 
ATOM     27  O   UNL     1       5.890   2.897   2.376  1.00  0.00    +0.000 OA
ATOM     28  N   UNL     1       4.572   2.083   0.676  1.00  0.00    +0.000 N 
ATOM     29  H   UNL     1       4.050   2.951   0.627  1.00  0.00    +0.000 HD
ENDBRANCH   9  23
BRANCH   9  30
ATOM     30  O   UNL     1       2.984   0.031   2.140  1.00  0.00    +0.000 OA
ATOM     31  H   UNL     1       3.869  -0.345   2.288  1.00  0.00    +0.000 HD
ENDBRANCH   9  30
TORSDOF 2
