REMARK  Name = /srv/my_project/app/compsite/backup/Dave/CORINA_stuff/newPDBs/SANC00108.pdb
AUTHORGENERATED BY OPEN BABEL 2.3.2
REMARK  7 active torsions:
REMARK  status: ('A' for Active; 'I' for Inactive)
REMARK    1  A    between atoms: C_3  and  C_5
REMARK    2  A    between atoms: C_5  and  O_6
REMARK    3  A    between atoms: C_12  and  O_14
REMARK    4  A    between atoms: O_14  and  C_15
REMARK    5  A    between atoms: C_15  and  C_17
REMARK    6  A    between atoms: C_17  and  C_18
REMARK    7  A    between atoms: C_19  and  C_20
REMARK                            x       y       z     vdW  Elec       q    Type
REMARK                         _______ _______ _______ _____ _____    ______ ____
ROOT
ATOM      1  C   UNL     1      -1.036   0.088  -0.733  1.00  0.00    +0.000 C 
ATOM      2  C   UNL     1      -2.365   0.059   0.030  1.00  0.00    +0.000 C 
ATOM      3  C   UNL     1      -3.240   0.911  -0.881  1.00  0.00    +0.000 C 
ATOM      4  C   UNL     1      -2.791   0.515  -2.285  1.00  0.00    +0.000 C 
ATOM      5  N   UNL     1      -1.451  -0.076  -2.150  1.00  0.00    +0.000 NA
ATOM      6  C   UNL     1      -1.429  -1.520  -2.401  1.00  0.00    +0.000 C 
ATOM      7  C   UNL     1      -0.172  -1.969  -1.680  1.00  0.00    +0.000 C 
ATOM      8  C   UNL     1      -0.097  -1.090  -0.428  1.00  0.00    +0.000 C 
ENDROOT
BRANCH   2   9
ATOM      9  C   UNL     1      -2.315   0.551   1.472  1.00  0.00    +0.000 C 
BRANCH   9  10
ATOM     10  O   UNL     1      -1.618   1.780   1.595  1.00  0.00    +0.000 OA
ATOM     11  H   UNL     1      -0.675   1.544   1.741  1.00  0.00    +0.000 HD
ENDBRANCH   9  10
ENDBRANCH   2   9
BRANCH   8  12
ATOM     12  O   UNL     1       1.279  -0.694  -0.278  1.00  0.00    +0.000 OA
BRANCH  12  13
ATOM     13  C   UNL     1       1.570   0.054   0.813  1.00  0.00    +0.000 C 
ATOM     14  O   UNL     1       0.770   0.420   1.661  1.00  0.00    +0.000 OA
BRANCH  13  15
ATOM     15  C   UNL     1       3.020   0.390   0.809  1.00  0.00    +0.000 C 
ATOM     16  C   UNL     1       3.633   0.682  -0.529  1.00  0.00    +0.000 C 
ATOM     17  C   UNL     1       3.725   0.482   1.954  1.00  0.00    +0.000 C 
ATOM     18  C   UNL     1       3.260   0.201   3.348  1.00  0.00    +0.000 C 
ENDBRANCH  13  15
ENDBRANCH  12  13
ENDBRANCH   8  12
TORSDOF 5
