REMARK  Name = /srv/my_project/app/compsite/backup/Dave/CORINA_stuff/newPDBs/SANC00212.pdb
AUTHORGENERATED BY OPEN BABEL 2.3.2
REMARK  3 active torsions:
REMARK  status: ('A' for Active; 'I' for Inactive)
REMARK    1  A    between atoms: C_1  and  C_2
REMARK    2  A    between atoms: C_2  and  C_3
REMARK    3  A    between atoms: C_7  and  C_9
REMARK                            x       y       z     vdW  Elec       q    Type
REMARK                         _______ _______ _______ _____ _____    ______ ____
ROOT
ATOM      1  C   UNL     1      -1.725  -0.992  -1.649  1.00  0.00    +0.000 C 
ATOM      2  C   UNL     1      -0.973  -0.296  -0.484  1.00  0.00    +0.000 C 
ATOM      3  C   UNL     1       0.403   0.195  -1.053  1.00  0.00    +0.000 C 
ATOM      4  C   UNL     1       1.474   0.663  -0.020  1.00  0.00    +0.000 C 
ATOM      5 CL   UNL     1       0.969   2.235   0.718  1.00  0.00    +0.000 Cl
ATOM      6  C   UNL     1       1.608  -0.430   1.082  1.00  0.00    +0.000 C 
ATOM      7 CL   UNL     1       2.759   0.004   2.391  1.00  0.00    +0.000 Cl
ATOM      8  C   UNL     1       0.276  -0.848   1.709  1.00  0.00    +0.000 C 
ATOM      9  C   UNL     1      -0.678  -1.352   0.626  1.00  0.00    +0.000 C 
ATOM     10 CL   UNL     1      -2.144  -2.060   1.376  1.00  0.00    +0.000 Cl
ENDROOT
BRANCH   2  11
ATOM     11  C   UNL     1      -1.827   0.922  -0.127  1.00  0.00    +0.000 C 
ATOM     12  C   UNL     1      -2.420   1.238   1.029  1.00  0.00    +0.000 C 
ATOM     13 CL   UNL     1      -3.346   2.671   1.215  1.00  0.00    +0.000 Cl
ENDBRANCH   2  11
BRANCH   4  14
ATOM     14  C   UNL     1       2.852   0.860  -0.694  1.00  0.00    +0.000 C 
ATOM     15 BR   UNL     1       2.847   2.092  -2.210  1.00  0.00    +0.000 Br
ENDBRANCH   4  14
TORSDOF 2
