REMARK  Name = /srv/my_project/app/compsite/backup/Dave/CORINA_stuff/newPDBs/SANC00271.pdb
AUTHORGENERATED BY OPEN BABEL 2.3.2
REMARK  6 active torsions:
REMARK  status: ('A' for Active; 'I' for Inactive)
REMARK    1  A    between atoms: C_1  and  C_2
REMARK    2  A    between atoms: C_2  and  C_4
REMARK    3  A    between atoms: C_2  and  C_7
REMARK    4  A    between atoms: C_7  and  C_10
REMARK    5  A    between atoms: C_11  and  C_12
REMARK    6  A    between atoms: C_12  and  C_15
REMARK                            x       y       z     vdW  Elec       q    Type
REMARK                         _______ _______ _______ _____ _____    ______ ____
ROOT
ATOM      1  C   UNL     1      -0.878  -1.215   0.257  1.00  0.00    +0.000 C 
ATOM      2 CL   UNL     1      -0.844  -2.895   0.918  1.00  0.00    +0.000 Cl
ENDROOT
BRANCH   1   4
ATOM      3  C   UNL     1      -3.401  -0.930   0.693  1.00  0.00    +0.000 C 
ATOM      4  C   UNL     1      -2.001  -0.325   0.896  1.00  0.00    +0.000 C 
ATOM      5 CL   UNL     1      -1.756  -0.232   2.713  1.00  0.00    +0.000 Cl
BRANCH   4   6
ATOM      6  C   UNL     1      -1.978   1.127   0.411  1.00  0.00    +0.000 C 
ATOM      7  C   UNL     1      -2.103   1.627  -0.826  1.00  0.00    +0.000 C 
ATOM      8 BR   UNL     1      -2.359   0.723  -2.418  1.00  0.00    +0.000 Br
ENDBRANCH   4   6
ENDBRANCH   1   4
BRANCH   1   9
ATOM      9  C   UNL     1       0.531  -0.664   0.398  1.00  0.00    +0.000 C 
ATOM     10  C   UNL     1       1.304  -0.321  -0.647  1.00  0.00    +0.000 C 
BRANCH  10  11
ATOM     11  C   UNL     1       2.664   0.235  -0.614  1.00  0.00    +0.000 C 
ATOM     12  C   UNL     1       3.096   0.816  -1.751  1.00  0.00    +0.000 C 
ATOM     13 CL   UNL     1       4.601   1.595  -2.004  1.00  0.00    +0.000 Cl
BRANCH  11  14
ATOM     14  C   UNL     1       3.479   0.117   0.664  1.00  0.00    +0.000 C 
ATOM     15 CL   UNL     1       3.698   1.705   1.438  1.00  0.00    +0.000 Cl
ATOM     16 CL   UNL     1       5.040  -0.707   0.416  1.00  0.00    +0.000 Cl
ENDBRANCH  11  14
ENDBRANCH  10  11
ENDBRANCH   1   9
TORSDOF 5
