REMARK  Name = /srv/my_project/app/compsite/backup/Dave/CORINA_stuff/newPDBs/SANC00214.pdb
AUTHORGENERATED BY OPEN BABEL 2.3.2
REMARK  7 active torsions:
REMARK  status: ('A' for Active; 'I' for Inactive)
REMARK    1  A    between atoms: C_1  and  C_2
REMARK    2  A    between atoms: C_2  and  C_4
REMARK    3  A    between atoms: C_2  and  C_15
REMARK    4  A    between atoms: C_5  and  C_6
REMARK    5  A    between atoms: C_6  and  C_9
REMARK    6  A    between atoms: C_9  and  C_10
REMARK    7  A    between atoms: C_9  and  C_12
REMARK                            x       y       z     vdW  Elec       q    Type
REMARK                         _______ _______ _______ _____ _____    ______ ____
ROOT
ATOM      1  C   UNL     1      -1.174   0.471   0.554  1.00  0.00    +0.000 C 
ATOM      2 CL   UNL     1      -1.900   0.789   2.179  1.00  0.00    +0.000 Cl
ENDROOT
BRANCH   1   3
ATOM      3  C   UNL     1      -2.143  -0.341  -0.377  1.00  0.00    +0.000 C 
ATOM      4  C   UNL     1      -2.501  -1.722   0.203  1.00  0.00    +0.000 C 
ATOM      5 CL   UNL     1      -1.285  -0.640  -1.964  1.00  0.00    +0.000 Cl
BRANCH   3   6
ATOM      6  C   UNL     1      -3.436   0.360  -0.784  1.00  0.00    +0.000 C 
ATOM      7  C   UNL     1      -3.814   1.616  -0.520  1.00  0.00    +0.000 C 
ATOM      8 CL   UNL     1      -5.311   2.252  -1.067  1.00  0.00    +0.000 Cl
ENDBRANCH   3   6
ENDBRANCH   1   3
BRANCH   1  10
ATOM      9  C   UNL     1       1.352   0.348   0.436  1.00  0.00    +0.000 C 
ATOM     10  C   UNL     1       0.172  -0.176   0.823  1.00  0.00    +0.000 C 
BRANCH   9  12
ATOM     11  C   UNL     1       3.667   0.889   1.213  1.00  0.00    +0.000 C 
ATOM     12  C   UNL     1       2.761  -0.206   0.630  1.00  0.00    +0.000 C 
ATOM     13 CL   UNL     1       2.763  -1.554   1.845  1.00  0.00    +0.000 Cl
BRANCH  12  14
ATOM     14  C   UNL     1       3.329  -0.798  -0.671  1.00  0.00    +0.000 C 
ATOM     15 BR   UNL     1       3.501   0.496  -2.126  1.00  0.00    +0.000 Br
ENDBRANCH  12  14
ENDBRANCH   9  12
ENDBRANCH   1  10
TORSDOF 5
