REMARK  Name = /srv/my_project/app/compsite/backup/Dave/CORINA_stuff/newPDBs/SANC00468.pdb
AUTHORGENERATED BY OPEN BABEL 2.3.2
REMARK  5 active torsions:
REMARK  status: ('A' for Active; 'I' for Inactive)
REMARK    1  A    between atoms: C_1  and  O_2
REMARK    2  A    between atoms: O_2  and  C_3
REMARK    3  A    between atoms: C_5  and  C_6
REMARK    4  A    between atoms: C_6  and  O_8
REMARK    5  A    between atoms: C_11  and  O_12
REMARK                            x       y       z     vdW  Elec       q    Type
REMARK                         _______ _______ _______ _____ _____    ______ ____
ROOT
ATOM      1  C   UNL     1      -0.952  -0.374   0.024  1.00  0.00    +0.000 A 
ATOM      2  C   UNL     1       0.147   0.439   0.303  1.00  0.00    +0.000 A 
ATOM      3  C   UNL     1       1.382   0.187  -0.320  1.00  0.00    +0.000 A 
ATOM      4  C   UNL     1       1.512  -0.879  -1.222  1.00  0.00    +0.000 A 
ATOM      5  C   UNL     1       0.416  -1.693  -1.503  1.00  0.00    +0.000 A 
ATOM      6  C   UNL     1      -0.798  -1.433  -0.880  1.00  0.00    +0.000 A 
ENDROOT
BRANCH   1   8
ATOM      7  C   UNL     1      -2.408   0.819   1.478  1.00  0.00    +0.000 C 
ATOM      8  O   UNL     1      -2.210  -0.246   0.554  1.00  0.00    +0.000 OA
ENDBRANCH   1   8
BRANCH   3   9
ATOM      9  C   UNL     1       2.577   1.024  -0.054  1.00  0.00    +0.000 C 
ATOM     10  O   UNL     1       3.679   0.874  -0.550  1.00  0.00    +0.000 OA
BRANCH   9  11
ATOM     11  O   UNL     1       2.338   2.014   0.823  1.00  0.00    +0.000 OA
ATOM     12  H   UNL     1       3.202   2.472   0.897  1.00  0.00    +0.000 HD
ENDBRANCH   9  11
ENDBRANCH   3   9
BRANCH   6  13
ATOM     13  O   UNL     1      -1.859  -2.246  -1.173  1.00  0.00    +0.000 OA
ATOM     14  H   UNL     1      -2.601  -1.898  -0.641  1.00  0.00    +0.000 HD
ENDBRANCH   6  13
TORSDOF 4
