REMARK  Name = SANCDB_00983_minRM1.pdb
AUTHORGENERATED BY OPEN BABEL 2.3.2
REMARK  10 active torsions:
REMARK  status: ('A' for Active; 'I' for Inactive)
REMARK    1  A    between atoms: C_1  and  C_2
REMARK    2  A    between atoms: C_5  and  O_33
REMARK    3  A    between atoms: C_6  and  C_31
REMARK    4  A    between atoms: C_6  and  C_32
REMARK    5  A    between atoms: C_10  and  C_30
REMARK    6  A    between atoms: C_15  and  C_29
REMARK    7  A    between atoms: C_18  and  C_26
REMARK    8  A    between atoms: C_21  and  C_24
REMARK    9  A    between atoms: C_21  and  C_25
REMARK   10  A    between atoms: C_26  and  O_28
REMARK                            x       y       z     vdW  Elec       q    Type
REMARK                         _______ _______ _______ _____ _____    ______ ____
ROOT
ATOM      1  C   UNL     1       3.032   0.490   2.077  1.00  0.00    +0.000 C 
ATOM      2  C   UNL     1       2.737  -0.350   0.809  1.00  0.00    +0.000 C 
ATOM      3  C   UNL     1       3.159  -1.820   1.103  1.00  0.00    +0.000 C 
ATOM      4  C   UNL     1       4.668  -2.029   1.192  1.00  0.00    +0.000 C 
ATOM      5  C   UNL     1       5.401  -1.534  -0.051  1.00  0.00    +0.000 C 
ATOM      6  C   UNL     1       5.094  -0.049  -0.412  1.00  0.00    +0.000 C 
ATOM      7  C   UNL     1       3.530   0.139  -0.460  1.00  0.00    +0.000 C 
ATOM      8  C   UNL     1       3.050   1.537  -0.905  1.00  0.00    +0.000 C 
ATOM      9  C   UNL     1       1.559   1.529  -1.268  1.00  0.00    +0.000 C 
ATOM     10  C   UNL     1       0.613   1.014  -0.147  1.00  0.00    +0.000 C 
ATOM     11  C   UNL     1       1.193  -0.336   0.425  1.00  0.00    +0.000 C 
ATOM     12  C   UNL     1       0.260  -0.971   1.479  1.00  0.00    +0.000 C 
ATOM     13  C   UNL     1      -1.200  -0.633   1.357  1.00  0.00    +0.000 C 
ATOM     14  C   UNL     1      -1.765   0.145   0.411  1.00  0.00    +0.000 C 
ATOM     15  C   UNL     1      -0.884   0.722  -0.713  1.00  0.00    +0.000 C 
ATOM     16  C   UNL     1      -1.554   2.015  -1.250  1.00  0.00    +0.000 C 
ATOM     17  C   UNL     1      -2.961   1.791  -1.808  1.00  0.00    +0.000 C 
ATOM     18  C   UNL     1      -3.918   1.026  -0.844  1.00  0.00    +0.000 C 
ATOM     19  C   UNL     1      -3.225   0.647   0.515  1.00  0.00    +0.000 C 
ATOM     20  C   UNL     1      -4.195  -0.225   1.367  1.00  0.00    +0.000 C 
ATOM     21  C   UNL     1      -4.719  -1.508   0.673  1.00  0.00    +0.000 C 
ATOM     22  C   UNL     1      -4.320  -1.547  -0.812  1.00  0.00    +0.000 C 
ATOM     23  C   UNL     1      -4.555  -0.222  -1.537  1.00  0.00    +0.000 C 
ATOM     24  C   UNL     1      -6.257  -1.558   0.806  1.00  0.00    +0.000 C 
ATOM     25  C   UNL     1      -4.163  -2.768   1.366  1.00  0.00    +0.000 C 
ATOM     26  C   UNL     1      -0.865  -0.321  -1.872  1.00  0.00    +0.000 C 
ATOM     27  C   UNL     1       0.548   2.125   0.943  1.00  0.00    +0.000 C 
ATOM     28  C   UNL     1       5.692   0.225  -1.821  1.00  0.00    +0.000 C 
ATOM     29  C   UNL     1       5.812   0.920   0.549  1.00  0.00    +0.000 C 
ENDROOT
BRANCH  18  30
ATOM     30  C   UNL     1      -5.045   2.036  -0.546  1.00  0.00    +0.000 C 
ATOM     31  O   UNL     1      -5.236   2.653   0.489  1.00  0.00    +0.000 OA
BRANCH  30  32
ATOM     32  O   UNL     1      -5.848   2.276  -1.605  1.00  0.00    +0.000 OA
ATOM     33  H   UNL     1      -6.478   2.950  -1.273  1.00  0.00    +0.000 HD
ENDBRANCH  30  32
ENDBRANCH  18  30
BRANCH   5  34
ATOM     34  O   UNL     1       6.794  -1.750   0.171  1.00  0.00    +0.000 OA
ATOM     35  H   UNL     1       7.247  -1.693  -0.686  1.00  0.00    +0.000 HD
ENDBRANCH   5  34
TORSDOF 3
