REMARK  Name = /srv/my_project/app/compsite/backup/Dave/CORINA_stuff/newPDBs/SANC00283.pdb
AUTHORGENERATED BY OPEN BABEL 2.3.2
REMARK  20 active torsions:
REMARK  status: ('A' for Active; 'I' for Inactive)
REMARK    1  A    between atoms: C_4  and  C_5
REMARK    2  A    between atoms: C_5  and  O_6
REMARK    3  A    between atoms: O_6  and  C_7
REMARK    4  A    between atoms: C_7  and  C_8
REMARK    5  A    between atoms: C_11  and  O_12
REMARK    6  A    between atoms: C_15  and  C_16
REMARK    7  A    between atoms: C_20  and  O_21
REMARK    8  A    between atoms: C_22  and  C_24
REMARK    9  A    between atoms: C_26  and  O_27
REMARK   10  A    between atoms: O_27  and  C_28
REMARK   11  A    between atoms: C_28  and  C_30
REMARK   12  A    between atoms: C_30  and  C_31
REMARK   13  A    between atoms: C_30  and  C_32
REMARK   14  A    between atoms: C_33  and  C_34
REMARK   15  A    between atoms: C_33  and  C_35
REMARK   16  A    between atoms: C_35  and  O_36
REMARK   17  A    between atoms: O_36  and  C_37
REMARK   18  A    between atoms: C_37  and  C_39
REMARK   19  A    between atoms: C_39  and  C_40
REMARK   20  A    between atoms: C_41  and  C_42
REMARK                            x       y       z     vdW  Elec       q    Type
REMARK                         _______ _______ _______ _____ _____    ______ ____
ROOT
ATOM      1  C   UNL     1      -1.213  -0.164  -0.532  1.00  0.00    +0.000 C 
ATOM      2  C   UNL     1      -2.295   0.699  -1.147  1.00  0.00    +0.000 C 
ATOM      3  C   UNL     1      -3.551   0.312  -1.464  1.00  0.00    +0.000 C 
ATOM      4  C   UNL     1      -4.190  -1.043  -1.162  1.00  0.00    +0.000 C 
ATOM      5  C   UNL     1      -3.498  -1.951  -0.128  1.00  0.00    +0.000 C 
ATOM      6  C   UNL     1      -4.463  -2.907   0.558  1.00  0.00    +0.000 C 
ATOM      7  O   UNL     1      -5.269  -3.623  -0.025  1.00  0.00    +0.000 OA
ATOM      8  C   UNL     1      -4.243  -2.944   2.017  1.00  0.00    +0.000 C 
ATOM      9  C   UNL     1      -4.942  -3.878   2.924  1.00  0.00    +0.000 C 
ATOM     10  C   UNL     1      -3.365  -1.969   2.279  1.00  0.00    +0.000 C 
ATOM     11  C   UNL     1      -2.960  -1.147   1.076  1.00  0.00    +0.000 C 
ATOM     12  C   UNL     1      -1.481  -0.658   0.942  1.00  0.00    +0.000 C 
ATOM     13  C   UNL     1      -0.399  -1.723   1.377  1.00  0.00    +0.000 C 
ATOM     14  C   UNL     1      -0.019  -1.670   2.868  1.00  0.00    +0.000 C 
ATOM     15  C   UNL     1       0.906  -1.722   0.524  1.00  0.00    +0.000 C 
ATOM     16  C   UNL     1       1.287  -0.370  -0.034  1.00  0.00    +0.000 C 
ATOM     17  C   UNL     1       1.268  -0.041  -1.547  1.00  0.00    +0.000 C 
ATOM     18  C   UNL     1       0.977  -1.100  -2.588  1.00  0.00    +0.000 C 
ATOM     19  C   UNL     1       0.171   0.460  -0.614  1.00  0.00    +0.000 C 
ENDROOT
BRANCH   5  20
ATOM     20  O   UNL     1      -2.523  -2.799  -0.749  1.00  0.00    +0.000 OA
ATOM     21  H   UNL     1      -3.014  -3.412  -1.339  1.00  0.00    +0.000 HD
ENDBRANCH   5  20
BRANCH  12  22
ATOM     22  O   UNL     1      -1.422   0.474   1.842  1.00  0.00    +0.000 OA
ATOM     23  H   UNL     1      -0.518   0.857   1.831  1.00  0.00    +0.000 HD
ENDBRANCH  12  22
BRANCH   3  24
ATOM     24  C   UNL     1      -4.483   1.295  -2.141  1.00  0.00    +0.000 C 
BRANCH  24  25
ATOM     25  O   UNL     1      -5.447   1.737  -1.177  1.00  0.00    +0.000 OA
BRANCH  25  26
ATOM     26  C   UNL     1      -5.242   2.980  -0.663  1.00  0.00    +0.000 C 
ATOM     27  C   UNL     1      -6.263   3.264   0.397  1.00  0.00    +0.000 C 
ATOM     28  O   UNL     1      -4.367   3.766  -1.000  1.00  0.00    +0.000 OA
ENDBRANCH  25  26
ENDBRANCH  24  25
ENDBRANCH   3  24
BRANCH  16  29
ATOM     29  O   UNL     1       2.389   0.255   0.667  1.00  0.00    +0.000 OA
BRANCH  29  30
ATOM     30  C   UNL     1       2.147   1.123   1.691  1.00  0.00    +0.000 C 
ATOM     31  O   UNL     1       1.038   1.490   2.056  1.00  0.00    +0.000 OA
BRANCH  30  32
ATOM     32  C   UNL     1       3.454   1.591   2.297  1.00  0.00    +0.000 C 
ATOM     33  C   UNL     1       3.336   1.643   3.817  1.00  0.00    +0.000 C 
ATOM     34  C   UNL     1       3.824   2.949   1.716  1.00  0.00    +0.000 C 
ENDBRANCH  30  32
ENDBRANCH  29  30
ENDBRANCH  16  29
BRANCH  17  35
ATOM     35  C   UNL     1       2.217   1.025  -2.081  1.00  0.00    +0.000 C 
BRANCH  35  36
ATOM     36  O   UNL     1       3.521   0.449  -2.216  1.00  0.00    +0.000 OA
BRANCH  36  37
ATOM     37  C   UNL     1       4.409   1.252  -2.853  1.00  0.00    +0.000 C 
ATOM     38  O   UNL     1       4.182   2.357  -3.323  1.00  0.00    +0.000 OA
BRANCH  37  39
ATOM     39  C   UNL     1       5.710   0.550  -2.997  1.00  0.00    +0.000 C 
ATOM     40  C   UNL     1       6.240   0.531  -4.399  1.00  0.00    +0.000 C 
ATOM     41  C   UNL     1       6.366  -0.007  -1.959  1.00  0.00    +0.000 C 
ATOM     42  C   UNL     1       5.972   0.009  -0.514  1.00  0.00    +0.000 C 
ENDBRANCH  37  39
ENDBRANCH  36  37
ENDBRANCH  35  36
ENDBRANCH  17  35
TORSDOF 12
