REMARK  Name = SANCDB_00976_minRM1.pdb
AUTHORGENERATED BY OPEN BABEL 2.3.2
REMARK  12 active torsions:
REMARK  status: ('A' for Active; 'I' for Inactive)
REMARK    1  A    between atoms: C_1  and  C_2
REMARK    2  A    between atoms: C_5  and  C_33
REMARK    3  A    between atoms: C_8  and  C_32
REMARK    4  A    between atoms: C_13  and  C_28
REMARK    5  A    between atoms: C_17  and  C_27
REMARK    6  A    between atoms: C_19  and  O_26
REMARK    7  A    between atoms: C_20  and  O_25
REMARK    8  A    between atoms: C_21  and  C_22
REMARK    9  A    between atoms: C_21  and  C_23
REMARK   10  A    between atoms: C_23  and  O_24
REMARK   11  A    between atoms: C_30  and  C_31
REMARK   12  A    between atoms: C_33  and  O_35
REMARK                            x       y       z     vdW  Elec       q    Type
REMARK                         _______ _______ _______ _____ _____    ______ ____
ROOT
ATOM      1  C   UNL     1      -3.882   1.780   2.349  1.00  0.00    +0.000 C 
ATOM      2  C   UNL     1      -4.781   0.926   1.450  1.00  0.00    +0.000 C 
ATOM      3  C   UNL     1      -4.896  -0.495   2.002  1.00  0.00    +0.000 C 
ATOM      4  C   UNL     1      -5.194  -1.511   0.915  1.00  0.00    +0.000 C 
ATOM      5  C   UNL     1      -4.056  -1.615  -0.142  1.00  0.00    +0.000 C 
ATOM      6  C   UNL     1      -2.996  -2.596   0.418  1.00  0.00    +0.000 C 
ATOM      7  C   UNL     1      -1.593  -2.402  -0.145  1.00  0.00    +0.000 C 
ATOM      8  C   UNL     1      -1.012  -0.985   0.095  1.00  0.00    +0.000 C 
ATOM      9  C   UNL     1      -1.971   0.045  -0.523  1.00  0.00    +0.000 C 
ATOM     10  C   UNL     1      -1.486   1.129  -1.170  1.00  0.00    +0.000 C 
ATOM     11  C   UNL     1      -0.044   1.501  -1.344  1.00  0.00    +0.000 C 
ATOM     12  C   UNL     1       0.931   0.643  -0.515  1.00  0.00    +0.000 C 
ATOM     13  C   UNL     1       0.488  -0.870  -0.553  1.00  0.00    +0.000 C 
ATOM     14  C   UNL     1       1.511  -1.728   0.240  1.00  0.00    +0.000 C 
ATOM     15  C   UNL     1       2.974  -1.449  -0.106  1.00  0.00    +0.000 C 
ATOM     16  C   UNL     1       3.327   0.030   0.157  1.00  0.00    +0.000 C 
ATOM     17  C   UNL     1       2.474   0.987  -0.745  1.00  0.00    +0.000 C 
ATOM     18  C   UNL     1       2.716   2.476  -0.298  1.00  0.00    +0.000 C 
ATOM     19  C   UNL     1       3.966   2.722   0.559  1.00  0.00    +0.000 C 
ATOM     20  C   UNL     1       5.171   1.866   0.141  1.00  0.00    +0.000 C 
ATOM     21  C   UNL     1       4.882   0.325   0.209  1.00  0.00    +0.000 C 
ATOM     22  C   UNL     1       5.670  -0.441  -0.881  1.00  0.00    +0.000 C 
ATOM     23  C   UNL     1       2.883   0.894  -2.235  1.00  0.00    +0.000 C 
ATOM     24  C   UNL     1       0.461  -1.414  -2.013  1.00  0.00    +0.000 C 
ATOM     25  C   UNL     1      -3.500  -0.206  -0.571  1.00  0.00    +0.000 C 
ATOM     26  C   UNL     1      -4.344   1.008  -0.034  1.00  0.00    +0.000 C 
ATOM     27  C   UNL     1      -5.574   1.242  -0.939  1.00  0.00    +0.000 C 
ATOM     28  C   UNL     1      -0.976  -0.730   1.626  1.00  0.00    +0.000 C 
ENDROOT
BRANCH  20  29
ATOM     29  O   UNL     1       5.591   2.297  -1.157  1.00  0.00    +0.000 OA
ATOM     30  H   UNL     1       6.507   1.986  -1.270  1.00  0.00    +0.000 HD
ENDBRANCH  20  29
BRANCH  19  31
ATOM     31  O   UNL     1       3.655   2.499   1.938  1.00  0.00    +0.000 OA
ATOM     32  H   UNL     1       2.980   3.155   2.187  1.00  0.00    +0.000 HD
ENDBRANCH  19  31
BRANCH   5  33
ATOM     33  C   UNL     1      -4.683  -2.283  -1.382  1.00  0.00    +0.000 C 
ATOM     34  O   UNL     1      -5.857  -2.575  -1.548  1.00  0.00    +0.000 OA
BRANCH  33  35
ATOM     35  O   UNL     1      -3.800  -2.555  -2.363  1.00  0.00    +0.000 OA
ATOM     36  H   UNL     1      -4.347  -2.964  -3.066  1.00  0.00    +0.000 HD
ENDBRANCH  33  35
ENDBRANCH   5  33
BRANCH  21  37
ATOM     37  C   UNL     1       5.405  -0.190   1.590  1.00  0.00    +0.000 C 
BRANCH  37  38
ATOM     38  O   UNL     1       6.817  -0.018   1.703  1.00  0.00    +0.000 OA
ATOM     39  H   UNL     1       7.063  -0.304   2.600  1.00  0.00    +0.000 HD
ENDBRANCH  37  38
ENDBRANCH  21  37
TORSDOF 6
