REMARK  Name = /srv/my_project/app/compsite/backup/Dave/CORINA_stuff/newPDBs/SANC00615.pdb
AUTHORGENERATED BY OPEN BABEL 2.3.2
REMARK  8 active torsions:
REMARK  status: ('A' for Active; 'I' for Inactive)
REMARK    1  A    between atoms: C_1  and  O_2
REMARK    2  A    between atoms: O_2  and  C_3
REMARK    3  A    between atoms: C_5  and  O_6
REMARK    4  A    between atoms: C_10  and  C_11
REMARK    5  A    between atoms: C_11  and  C_12
REMARK    6  A    between atoms: C_15  and  O_16
REMARK    7  A    between atoms: O_16  and  C_17
REMARK    8  A    between atoms: C_18  and  O_19
REMARK                            x       y       z     vdW  Elec       q    Type
REMARK                         _______ _______ _______ _____ _____    ______ ____
ROOT
ATOM      1  C   UNL     1       4.650  -0.421   1.231  1.00  0.00    +0.000 A 
ATOM      2  C   UNL     1       3.806  -0.245   2.330  1.00  0.00    +0.000 A 
ATOM      3  C   UNL     1       2.494   0.205   2.155  1.00  0.00    +0.000 A 
ATOM      4  C   UNL     1       2.015   0.495   0.874  1.00  0.00    +0.000 A 
ATOM      5  C   UNL     1       0.629   0.958   0.605  1.00  0.00    +0.000 C 
ATOM      6  O   UNL     1      -0.087   1.422   1.483  1.00  0.00    +0.000 OA
ATOM      7  C   UNL     1       0.180   0.821  -0.839  1.00  0.00    +0.000 C 
ATOM      8  C   UNL     1       1.333   1.383  -1.659  1.00  0.00    +0.000 C 
ATOM      9  O   UNL     1       2.507   0.576  -1.526  1.00  0.00    +0.000 OA
ATOM     10  C   UNL     1       2.867   0.329  -0.225  1.00  0.00    +0.000 A 
ATOM     11  C   UNL     1       4.175  -0.138  -0.048  1.00  0.00    +0.000 A 
ENDROOT
BRANCH   1  13
ATOM     12  C   UNL     1       6.801  -1.081   0.458  1.00  0.00    +0.000 C 
ATOM     13  O   UNL     1       5.902  -0.874   1.542  1.00  0.00    +0.000 OA
ENDBRANCH   1  13
BRANCH   3  14
ATOM     14  O   UNL     1       1.689   0.328   3.251  1.00  0.00    +0.000 OA
ATOM     15  H   UNL     1       2.189   0.132   4.059  1.00  0.00    +0.000 HD
ENDBRANCH   3  14
BRANCH   7  16
ATOM     16  C   UNL     1      -1.121   1.581  -1.136  1.00  0.00    +0.000 C 
BRANCH  16  17
ATOM     17  C   UNL     1      -2.348   0.718  -0.939  1.00  0.00    +0.000 A 
ATOM     18  C   UNL     1      -3.002   0.678   0.297  1.00  0.00    +0.000 A 
ATOM     19  C   UNL     1      -4.126  -0.135   0.489  1.00  0.00    +0.000 A 
ATOM     20  C   UNL     1      -4.616  -0.924  -0.553  1.00  0.00    +0.000 A 
ATOM     21  C   UNL     1      -3.958  -0.883  -1.790  1.00  0.00    +0.000 A 
ATOM     22  C   UNL     1      -2.834  -0.076  -1.986  1.00  0.00    +0.000 A 
BRANCH  20  23
ATOM     23  O   UNL     1      -5.705  -1.750  -0.471  1.00  0.00    +0.000 OA
ATOM     24  C   UNL     1      -6.379  -1.817   0.777  1.00  0.00    +0.000 C 
ENDBRANCH  20  23
BRANCH  21  25
ATOM     25  O   UNL     1      -4.428  -1.654  -2.821  1.00  0.00    +0.000 OA
ATOM     26  H   UNL     1      -3.882  -1.498  -3.607  1.00  0.00    +0.000 HD
ENDBRANCH  21  25
ENDBRANCH  16  17
ENDBRANCH   7  16
TORSDOF 6
