REMARK  Name = /srv/my_project/app/compsite/backup/Dave/CORINA_stuff/newPDBs/SANC00416.pdb
AUTHORGENERATED BY OPEN BABEL 2.3.2
REMARK  2 active torsions:
REMARK  status: ('A' for Active; 'I' for Inactive)
REMARK    1  A    between atoms: C_2  and  C_20
REMARK    2  A    between atoms: C_5  and  C_10
REMARK                            x       y       z     vdW  Elec       q    Type
REMARK                         _______ _______ _______ _____ _____    ______ ____
ROOT
ATOM      1  C   UNL     1      -0.798  -1.255  -1.385  1.00  0.00    +0.000 C 
ATOM      2  C   UNL     1      -1.032   0.170  -0.848  1.00  0.00    +0.000 C 
ATOM      3  N   UNL     1       0.207   0.703  -0.264  1.00  0.00    +0.000 NA
ATOM      4  C   UNL     1       1.276   0.782  -1.290  1.00  0.00    +0.000 C 
ATOM      5  C   UNL     1       1.439  -0.511  -2.143  1.00  0.00    +0.000 C 
ATOM      6  O   UNL     1       2.457  -0.798  -2.773  1.00  0.00    +0.000 OA
ATOM      7  N   UNL     1       0.346  -1.336  -2.269  1.00  0.00    +0.000 N 
ATOM      8  H   UNL     1       0.527   0.069   0.465  1.00  0.00    +0.000 HD
ATOM      9  H   UNL     1       0.523  -2.186  -2.790  1.00  0.00    +0.000 HD
ENDROOT
BRANCH   4  10
ATOM     10  C   UNL     1       2.541   1.160  -0.563  1.00  0.00    +0.000 A 
ATOM     11  C   UNL     1       3.107   2.423  -0.535  1.00  0.00    +0.000 A 
ATOM     12  N   UNL     1       4.230   2.382   0.243  1.00  0.00    +0.000 N 
ATOM     13  C   UNL     1       4.415   1.117   0.746  1.00  0.00    +0.000 A 
ATOM     14  C   UNL     1       3.376   0.322   0.256  1.00  0.00    +0.000 A 
ATOM     15  C   UNL     1       3.344  -1.039   0.632  1.00  0.00    +0.000 A 
ATOM     16  C   UNL     1       4.338  -1.552   1.474  1.00  0.00    +0.000 A 
ATOM     17  C   UNL     1       5.355  -0.726   1.943  1.00  0.00    +0.000 A 
ATOM     18  C   UNL     1       5.418   0.624   1.591  1.00  0.00    +0.000 A 
ATOM     19 BR   UNL     1       6.686  -1.445   3.082  1.00  0.00    +0.000 Br
ATOM     20  H   UNL     1       4.836   3.169   0.431  1.00  0.00    +0.000 HD
ENDBRANCH   4  10
BRANCH   2  21
ATOM     21  C   UNL     1      -2.125   0.191   0.189  1.00  0.00    +0.000 A 
ATOM     22  C   UNL     1      -2.012   0.003   1.556  1.00  0.00    +0.000 A 
ATOM     23  N   UNL     1      -3.257   0.097   2.116  1.00  0.00    +0.000 N 
ATOM     24  C   UNL     1      -4.200   0.315   1.142  1.00  0.00    +0.000 A 
ATOM     25  C   UNL     1      -3.525   0.383  -0.077  1.00  0.00    +0.000 A 
ATOM     26  C   UNL     1      -4.279   0.607  -1.249  1.00  0.00    +0.000 A 
ATOM     27  C   UNL     1      -5.669   0.754  -1.162  1.00  0.00    +0.000 A 
ATOM     28  C   UNL     1      -6.306   0.679   0.073  1.00  0.00    +0.000 A 
ATOM     29  C   UNL     1      -5.590   0.459   1.252  1.00  0.00    +0.000 A 
ATOM     30 BR   UNL     1      -8.187   0.881   0.161  1.00  0.00    +0.000 Br
ATOM     31  H   UNL     1      -3.458   0.017   3.104  1.00  0.00    +0.000 HD
ENDBRANCH   2  21
TORSDOF 2
