REMARK  Name = /srv/my_project/app/compsite/backup/Dave/CORINA_stuff/newPDBs/SANC00356.pdb
AUTHORGENERATED BY OPEN BABEL 2.3.2
REMARK  8 active torsions:
REMARK  status: ('A' for Active; 'I' for Inactive)
REMARK    1  A    between atoms: C_1  and  O_2
REMARK    2  A    between atoms: O_2  and  C_3
REMARK    3  A    between atoms: C_5  and  O_6
REMARK    4  A    between atoms: C_10  and  C_12
REMARK    5  A    between atoms: C_12  and  C_13
REMARK    6  A    between atoms: C_16  and  O_17
REMARK    7  A    between atoms: C_23  and  O_24
REMARK    8  A    between atoms: O_24  and  C_25
REMARK                            x       y       z     vdW  Elec       q    Type
REMARK                         _______ _______ _______ _____ _____    ______ ____
ROOT
ATOM      1  C   UNL     1       3.698   1.149   0.046  1.00  0.00    +0.000 A 
ATOM      2  C   UNL     1       2.947   1.854   0.989  1.00  0.00    +0.000 A 
ATOM      3  C   UNL     1       1.629   1.482   1.256  1.00  0.00    +0.000 A 
ATOM      4  C   UNL     1       1.043   0.401   0.589  1.00  0.00    +0.000 A 
ATOM      5  C   UNL     1      -0.369   0.031   0.814  1.00  0.00    +0.000 C 
ATOM      6  O   UNL     1      -0.997   0.599   1.705  1.00  0.00    +0.000 OA
ATOM      7  C   UNL     1      -0.952  -1.005  -0.126  1.00  0.00    +0.000 C 
ATOM      8  C   UNL     1       0.158  -2.020  -0.365  1.00  0.00    +0.000 C 
ATOM      9  O   UNL     1       1.282  -1.416  -1.009  1.00  0.00    +0.000 OA
ATOM     10  C   UNL     1       1.789  -0.336  -0.330  1.00  0.00    +0.000 A 
ATOM     11  C   UNL     1       3.113   0.042  -0.598  1.00  0.00    +0.000 A 
ENDROOT
BRANCH   1  13
ATOM     12  C   UNL     1       5.546   2.646   0.208  1.00  0.00    +0.000 C 
ATOM     13  O   UNL     1       4.990   1.441  -0.303  1.00  0.00    +0.000 OA
ENDBRANCH   1  13
BRANCH   3  14
ATOM     14  O   UNL     1       0.961   2.235   2.184  1.00  0.00    +0.000 OA
ATOM     15  H   UNL     1       0.052   1.868   2.280  1.00  0.00    +0.000 HD
ENDBRANCH   3  14
BRANCH  11  16
ATOM     16  O   UNL     1       3.819  -0.647  -1.558  1.00  0.00    +0.000 OA
ATOM     17  C   UNL     1       4.609  -1.666  -0.948  1.00  0.00    +0.000 C 
ENDBRANCH  11  16
BRANCH   7  18
ATOM     18  C   UNL     1      -2.195  -1.690   0.458  1.00  0.00    +0.000 C 
BRANCH  18  19
ATOM     19  C   UNL     1      -3.476  -0.976   0.090  1.00  0.00    +0.000 A 
ATOM     20  C   UNL     1      -4.065  -0.061   0.973  1.00  0.00    +0.000 A 
ATOM     21  C   UNL     1      -5.241   0.609   0.623  1.00  0.00    +0.000 A 
ATOM     22  C   UNL     1      -5.827   0.361  -0.613  1.00  0.00    +0.000 A 
ATOM     23  C   UNL     1      -5.257  -0.540  -1.502  1.00  0.00    +0.000 A 
ATOM     24  C   UNL     1      -4.082  -1.208  -1.154  1.00  0.00    +0.000 A 
BRANCH  22  25
ATOM     25  O   UNL     1      -6.973   0.993  -0.995  1.00  0.00    +0.000 OA
ATOM     26  H   UNL     1      -7.244   1.595  -0.282  1.00  0.00    +0.000 HD
ENDBRANCH  22  25
ENDBRANCH  18  19
ENDBRANCH   7  18
TORSDOF 6
