REMARK  Name = /srv/my_project/app/compsite/backup/Dave/CORINA_stuff/newPDBs/SANC00539.pdb
AUTHORGENERATED BY OPEN BABEL 2.3.2
REMARK  4 active torsions:
REMARK  status: ('A' for Active; 'I' for Inactive)
REMARK    1  A    between atoms: C_2  and  C_3
REMARK    2  A    between atoms: C_2  and  C_4
REMARK    3  A    between atoms: C_7  and  C_8
REMARK    4  A    between atoms: C_12  and  C_13
REMARK                            x       y       z     vdW  Elec       q    Type
REMARK                         _______ _______ _______ _____ _____    ______ ____
ROOT
ATOM      1  C   UNL     1      -1.919  -1.091  -0.236  1.00  0.00    +0.000 C 
ATOM      2  C   UNL     1      -1.604  -0.047  -1.033  1.00  0.00    +0.000 C 
ATOM      3  C   UNL     1      -1.992   1.340  -0.876  1.00  0.00    +0.000 C 
ATOM      4  C   UNL     1      -1.508   2.258  -0.016  1.00  0.00    +0.000 C 
ATOM      5  C   UNL     1      -2.071   3.658  -0.026  1.00  0.00    +0.000 C 
ATOM      6  C   UNL     1      -0.415   2.020   1.009  1.00  0.00    +0.000 C 
ATOM      7  C   UNL     1       0.957   2.596   0.607  1.00  0.00    +0.000 C 
ATOM      8  C   UNL     1       1.610   1.730  -0.436  1.00  0.00    +0.000 C 
ATOM      9  C   UNL     1       2.789   1.081  -0.373  1.00  0.00    +0.000 C 
ATOM     10  C   UNL     1       3.806   1.219   0.725  1.00  0.00    +0.000 C 
ATOM     11  C   UNL     1       3.119   0.066  -1.453  1.00  0.00    +0.000 C 
ATOM     12  C   UNL     1       2.992  -1.403  -0.997  1.00  0.00    +0.000 C 
ATOM     13  C   UNL     1       1.862  -1.701  -0.083  1.00  0.00    +0.000 C 
ATOM     14  C   UNL     1       0.974  -2.514  -0.648  1.00  0.00    +0.000 C 
ATOM     15  C   UNL     1      -0.273  -3.094  -0.086  1.00  0.00    +0.000 C 
ATOM     16  C   UNL     1      -1.568  -2.510  -0.669  1.00  0.00    +0.000 C 
ATOM     17  C   UNL     1       1.504  -2.839  -1.976  1.00  0.00    +0.000 C 
ATOM     18  O   UNL     1       0.961  -3.560  -2.793  1.00  0.00    +0.000 OA
ATOM     19  O   UNL     1       2.708  -2.222  -2.141  1.00  0.00    +0.000 OA
ENDROOT
BRANCH   1  21
ATOM     20  C   UNL     1      -4.021  -0.547   0.895  1.00  0.00    +0.000 C 
ATOM     21  C   UNL     1      -2.749  -0.975   0.965  1.00  0.00    +0.000 C 
ATOM     22  C   UNL     1      -2.134  -1.363   2.280  1.00  0.00    +0.000 C 
ENDBRANCH   1  21
TORSDOF 1
