REMARK  Name = /srv/my_project/app/compsite/backup/Dave/CORINA_stuff/newPDBs/SANC00361.pdb
AUTHORGENERATED BY OPEN BABEL 2.3.2
REMARK  6 active torsions:
REMARK  status: ('A' for Active; 'I' for Inactive)
REMARK    1  A    between atoms: C_4  and  O_5
REMARK    2  A    between atoms: C_7  and  O_8
REMARK    3  A    between atoms: C_13  and  O_14
REMARK    4  A    between atoms: C_13  and  C_15
REMARK    5  A    between atoms: C_15  and  C_16
REMARK    6  A    between atoms: C_19  and  O_20
REMARK                            x       y       z     vdW  Elec       q    Type
REMARK                         _______ _______ _______ _____ _____    ______ ____
ROOT
ATOM      1  O   UNL     1       1.388  -1.880   1.688  1.00  0.00    +0.000 OA
ATOM      2  C   UNL     1       1.319  -0.947   0.885  1.00  0.00    +0.000 C 
ATOM      3  C   UNL     1       2.500  -0.607   0.071  1.00  0.00    +0.000 A 
ATOM      4  C   UNL     1       3.685  -1.348   0.159  1.00  0.00    +0.000 A 
ATOM      5  C   UNL     1       4.801  -0.979  -0.588  1.00  0.00    +0.000 A 
ATOM      6  C   UNL     1       4.733   0.141  -1.410  1.00  0.00    +0.000 A 
ATOM      7  C   UNL     1       3.563   0.888  -1.506  1.00  0.00    +0.000 A 
ATOM      8  C   UNL     1       2.438   0.500  -0.775  1.00  0.00    +0.000 A 
ATOM      9  O   UNL     1       1.327   1.282  -0.920  1.00  0.00    +0.000 OA
ATOM     10  C   UNL     1       0.103   0.587  -0.639  1.00  0.00    +0.000 C 
ATOM     11  C   UNL     1       0.083  -0.064   0.749  1.00  0.00    +0.000 C 
ENDROOT
BRANCH   4  12
ATOM     12  O   UNL     1       3.823  -2.446   0.966  1.00  0.00    +0.000 OA
ATOM     13  H   UNL     1       2.992  -2.559   1.478  1.00  0.00    +0.000 HD
ENDBRANCH   4  12
BRANCH   6  14
ATOM     14  O   UNL     1       5.850   0.479  -2.116  1.00  0.00    +0.000 OA
ATOM     15  H   UNL     1       5.673   1.290  -2.621  1.00  0.00    +0.000 HD
ENDBRANCH   6  14
BRANCH  11  16
ATOM     16  O   UNL     1       0.178   0.935   1.776  1.00  0.00    +0.000 OA
ATOM     17  H   UNL     1       0.232   0.467   2.630  1.00  0.00    +0.000 HD
ENDBRANCH  11  16
BRANCH  11  18
ATOM     18  C   UNL     1      -1.177  -0.936   0.969  1.00  0.00    +0.000 C 
BRANCH  18  19
ATOM     19  C   UNL     1      -2.495  -0.284   0.609  1.00  0.00    +0.000 A 
ATOM     20  C   UNL     1      -3.253  -0.770  -0.466  1.00  0.00    +0.000 A 
ATOM     21  C   UNL     1      -4.466  -0.169  -0.807  1.00  0.00    +0.000 A 
ATOM     22  C   UNL     1      -4.926   0.917  -0.074  1.00  0.00    +0.000 A 
ATOM     23  C   UNL     1      -4.195   1.412   1.000  1.00  0.00    +0.000 A 
ATOM     24  C   UNL     1      -2.982   0.809   1.341  1.00  0.00    +0.000 A 
BRANCH  22  25
ATOM     25  O   UNL     1      -6.114   1.475  -0.443  1.00  0.00    +0.000 OA
ATOM     26  H   UNL     1      -6.308   2.214   0.157  1.00  0.00    +0.000 HD
ENDBRANCH  22  25
ENDBRANCH  18  19
ENDBRANCH  11  18
TORSDOF 6
