REMARK  Name = SANCDB_00902_minRM1.pdb
AUTHORGENERATED BY OPEN BABEL 2.3.2
REMARK  3 active torsions:
REMARK  status: ('A' for Active; 'I' for Inactive)
REMARK    1  A    between atoms: C_1  and  C_2
REMARK    2  A    between atoms: C_2  and  C_11
REMARK    3  A    between atoms: C_6  and  C_10
REMARK                            x       y       z     vdW  Elec       q    Type
REMARK                         _______ _______ _______ _____ _____    ______ ____
ROOT
ATOM      1  C   UNL     1      -2.223   0.725  -0.841  1.00  0.00    +0.000 C 
ATOM      2  C   UNL     1      -1.230   0.148   0.179  1.00  0.00    +0.000 C 
ATOM      3  C   UNL     1      -0.597  -1.188  -0.307  1.00  0.00    +0.000 C 
ATOM      4  C   UNL     1       0.186  -0.940  -1.611  1.00  0.00    +0.000 C 
ATOM      5  C   UNL     1       1.168   0.216  -1.391  1.00  0.00    +0.000 C 
ATOM      6  C   UNL     1       1.128   0.659   0.085  1.00  0.00    +0.000 C 
ATOM      7  O   UNL     1      -0.200   1.140   0.378  1.00  0.00    +0.000 OA
ATOM      8  C   UNL     1       1.428  -0.535   1.010  1.00  0.00    +0.000 C 
ATOM      9  C   UNL     1       0.439  -1.671   0.726  1.00  0.00    +0.000 C 
ATOM     10  C   UNL     1       2.099   1.807   0.339  1.00  0.00    +0.000 C 
ATOM     11  C   UNL     1      -1.968  -0.013   1.517  1.00  0.00    +0.000 C 
ENDROOT
TORSDOF 0
