REMARK  Name = /srv/my_project/app/compsite/backup/Dave/CORINA_stuff/newPDBs/SANC00165.pdb
AUTHORGENERATED BY OPEN BABEL 2.3.2
REMARK  13 active torsions:
REMARK  status: ('A' for Active; 'I' for Inactive)
REMARK    1  A    between atoms: C_1  and  C_2
REMARK    2  A    between atoms: C_2  and  C_3
REMARK    3  A    between atoms: C_3  and  C_4
REMARK    4  A    between atoms: C_4  and  C_6
REMARK    5  A    between atoms: C_4  and  C_7
REMARK    6  A    between atoms: C_7  and  C_8
REMARK    7  A    between atoms: C_8  and  C_10
REMARK    8  A    between atoms: C_8  and  C_11
REMARK    9  A    between atoms: C_11  and  C_12
REMARK   10  A    between atoms: C_12  and  C_14
REMARK   11  A    between atoms: C_12  and  C_15
REMARK   12  A    between atoms: C_19  and  C_20
REMARK   13  A    between atoms: C_21  and  C_22
REMARK                            x       y       z     vdW  Elec       q    Type
REMARK                         _______ _______ _______ _____ _____    ______ ____
ROOT
ATOM      1  C   UNL     1      -0.968  -0.073  -1.244  1.00  0.00    +0.000 C 
ATOM      2  C   UNL     1      -0.994   0.990  -2.345  1.00  0.00    +0.000 C 
ENDROOT
BRANCH   1   3
ATOM      3  C   UNL     1      -2.290  -0.882  -1.203  1.00  0.00    +0.000 C 
ATOM      4  O   UNL     1      -2.068  -2.064  -0.416  1.00  0.00    +0.000 OA
ATOM      5  C   UNL     1      -2.983  -2.131   0.586  1.00  0.00    +0.000 C 
ATOM      6  O   UNL     1      -3.041  -3.003   1.433  1.00  0.00    +0.000 OA
ATOM      7  C   UNL     1      -3.897  -0.987   0.478  1.00  0.00    +0.000 C 
ATOM      8  C   UNL     1      -5.018  -0.818   1.429  1.00  0.00    +0.000 C 
ATOM      9  C   UNL     1      -3.489  -0.261  -0.568  1.00  0.00    +0.000 C 
ATOM     10  C   UNL     1      -4.128   0.963  -1.122  1.00  0.00    +0.000 C 
ENDBRANCH   1   3
BRANCH   1  11
ATOM     11  C   UNL     1      -0.584   0.518   0.137  1.00  0.00    +0.000 C 
BRANCH  11  12
ATOM     12  C   UNL     1       0.852   1.096   0.190  1.00  0.00    +0.000 C 
ATOM     13  C   UNL     1       0.790   2.632   0.156  1.00  0.00    +0.000 C 
BRANCH  12  14
ATOM     14  C   UNL     1       1.617   0.660   1.464  1.00  0.00    +0.000 C 
BRANCH  14  15
ATOM     15  C   UNL     1       2.320  -0.719   1.432  1.00  0.00    +0.000 C 
ATOM     16  C   UNL     1       1.338  -1.892   1.445  1.00  0.00    +0.000 C 
BRANCH  15  17
ATOM     17  C   UNL     1       3.329  -0.906   0.279  1.00  0.00    +0.000 C 
BRANCH  17  19
ATOM     18  C   UNL     1       5.447  -0.134  -0.847  1.00  0.00    +0.000 C 
ATOM     19  C   UNL     1       4.411   0.174   0.224  1.00  0.00    +0.000 C 
ENDBRANCH  17  19
ENDBRANCH  15  17
ENDBRANCH  14  15
ENDBRANCH  12  14
ENDBRANCH  11  12
ENDBRANCH   1  11
TORSDOF 7
