REMARK  Name = /srv/my_project/app/compsite/backup/Dave/CORINA_stuff/newPDBs/SANC00532.pdb
AUTHORGENERATED BY OPEN BABEL 2.3.2
REMARK  8 active torsions:
REMARK  status: ('A' for Active; 'I' for Inactive)
REMARK    1  A    between atoms: C_1  and  O_2
REMARK    2  A    between atoms: O_2  and  C_3
REMARK    3  A    between atoms: C_12  and  C_13
REMARK    4  A    between atoms: C_13  and  C_14
REMARK    5  A    between atoms: C_15  and  C_16
REMARK    6  A    between atoms: C_15  and  C_17
REMARK    7  A    between atoms: C_18  and  O_19
REMARK    8  A    between atoms: O_19  and  C_20
REMARK                            x       y       z     vdW  Elec       q    Type
REMARK                         _______ _______ _______ _____ _____    ______ ____
ROOT
ATOM      1  C   UNL     1       2.073   0.326  -0.811  1.00  0.00    +0.000 A 
ATOM      2  C   UNL     1       2.686  -0.778  -0.227  1.00  0.00    +0.000 A 
ATOM      3  C   UNL     1       1.898  -1.795   0.312  1.00  0.00    +0.000 A 
ATOM      4  O   UNL     1       2.603  -2.875   0.889  1.00  0.00    +0.000 OA
ATOM      5  C   UNL     1       1.945  -3.944   1.473  1.00  0.00    +0.000 A 
ATOM      6  O   UNL     1       2.539  -4.892   1.973  1.00  0.00    +0.000 OA
ATOM      7  C   UNL     1       0.477  -3.892   1.467  1.00  0.00    +0.000 A 
ATOM      8  C   UNL     1      -0.203  -2.878   0.923  1.00  0.00    +0.000 A 
ATOM      9  C   UNL     1       0.499  -1.758   0.297  1.00  0.00    +0.000 A 
ATOM     10  C   UNL     1      -0.140  -0.655  -0.307  1.00  0.00    +0.000 A 
ATOM     11  C   UNL     1       0.664   0.368  -0.871  1.00  0.00    +0.000 A 
ENDROOT
BRANCH   1  13
ATOM     12  C   UNL     1       4.152   1.462  -1.110  1.00  0.00    +0.000 C 
ATOM     13  O   UNL     1       2.750   1.396  -1.336  1.00  0.00    +0.000 OA
ENDBRANCH   1  13
BRANCH  11  14
ATOM     14  O   UNL     1       0.007   1.449  -1.417  1.00  0.00    +0.000 OA
ATOM     15  C   UNL     1       0.285   1.613  -2.808  1.00  0.00    +0.000 C 
ENDBRANCH  11  14
BRANCH  10  16
ATOM     16  C   UNL     1      -1.653  -0.518  -0.347  1.00  0.00    +0.000 C 
BRANCH  16  17
ATOM     17  C   UNL     1      -2.212   0.082   0.917  1.00  0.00    +0.000 C 
ATOM     18  C   UNL     1      -2.844   1.263   1.073  1.00  0.00    +0.000 C 
ATOM     19  C   UNL     1      -3.334   1.695   2.431  1.00  0.00    +0.000 C 
ATOM     20  C   UNL     1      -3.113   2.260  -0.020  1.00  0.00    +0.000 C 
ENDBRANCH  16  17
ENDBRANCH  10  16
TORSDOF 4
