REMARK  Name = SANCDB_01070_minRM1.pdb
AUTHORGENERATED BY OPEN BABEL 2.3.2
REMARK  11 active torsions:
REMARK  status: ('A' for Active; 'I' for Inactive)
REMARK    1  A    between atoms: C_1  and  C_2
REMARK    2  A    between atoms: C_2  and  C_3
REMARK    3  A    between atoms: C_2  and  N_4
REMARK    4  A    between atoms: N_4  and  C_5
REMARK    5  A    between atoms: C_5  and  C_6
REMARK    6  A    between atoms: C_6  and  C_7
REMARK    7  A    between atoms: C_6  and  O_19
REMARK    8  A    between atoms: C_7  and  O_8
REMARK    9  A    between atoms: O_8  and  C_9
REMARK   10  A    between atoms: C_12  and  C_15
REMARK   11  A    between atoms: C_15  and  C_16
REMARK                            x       y       z     vdW  Elec       q    Type
REMARK                         _______ _______ _______ _____ _____    ______ ____
ROOT
ATOM      1  C   UNL     1       1.603  -0.677   1.006  1.00  0.00    +0.000 A 
ATOM      2  C   UNL     1       2.190  -1.156   2.180  1.00  0.00    +0.000 A 
ATOM      3  C   UNL     1       3.567  -1.376   2.250  1.00  0.00    +0.000 A 
ATOM      4  C   UNL     1       4.382  -1.114   1.142  1.00  0.00    +0.000 A 
ATOM      5  C   UNL     1       3.791  -0.635  -0.034  1.00  0.00    +0.000 A 
ATOM      6  C   UNL     1       2.410  -0.417  -0.101  1.00  0.00    +0.000 A 
ENDROOT
BRANCH   1   7
ATOM      7  O   UNL     1       0.249  -0.505   1.075  1.00  0.00    +0.000 OA
BRANCH   7   8
ATOM      8  C   UNL     1      -0.418  -0.090  -0.124  1.00  0.00    +0.000 C 
BRANCH   8   9
ATOM      9  C   UNL     1      -1.916  -0.002   0.188  1.00  0.00    +0.000 C 
BRANCH   9  10
ATOM     10  O   UNL     1      -2.131   1.008   1.192  1.00  0.00    +0.000 OA
ATOM     11  H   UNL     1      -1.538   0.771   1.930  1.00  0.00    +0.000 HD
ENDBRANCH   9  10
BRANCH   9  12
ATOM     12  C   UNL     1      -2.723   0.368  -1.070  1.00  0.00    +0.000 C 
BRANCH  12  13
ATOM     13  N   UNL     1      -4.158   0.405  -0.752  1.00  0.00    +0.000 NA
ATOM     14  H   UNL     1      -4.251   0.933   0.122  1.00  0.00    +0.000 HD
BRANCH  13  16
ATOM     15  C   UNL     1      -6.384   1.243  -1.253  1.00  0.00    +0.000 C 
ATOM     16  C   UNL     1      -4.967   1.042  -1.797  1.00  0.00    +0.000 C 
ATOM     17  C   UNL     1      -5.019   0.202  -3.073  1.00  0.00    +0.000 C 
ENDBRANCH  13  16
ENDBRANCH  12  13
ENDBRANCH   9  12
ENDBRANCH   8   9
ENDBRANCH   7   8
ENDBRANCH   1   7
BRANCH   4  18
ATOM     18  C   UNL     1       5.874  -1.338   1.221  1.00  0.00    +0.000 C 
BRANCH  18  19
ATOM     19  C   UNL     1       6.593  -0.398   2.170  1.00  0.00    +0.000 C 
ATOM     20  O   UNL     1       7.442  -0.776   2.972  1.00  0.00    +0.000 OA
ATOM     21  N   UNL     1       6.307   0.932   2.044  1.00  0.00    +0.000 N 
ATOM     22  H   UNL     1       6.719   1.536   2.744  1.00  0.00    +0.000 HD
ATOM     23  H   UNL     1       5.422   1.226   1.650  1.00  0.00    +0.000 HD
ENDBRANCH  18  19
ENDBRANCH   4  18
TORSDOF 9
