REMARK  Name = /srv/my_project/app/compsite/backup/Dave/CORINA_stuff/newPDBs/SANC00656.pdb
AUTHORGENERATED BY OPEN BABEL 2.3.2
REMARK  11 active torsions:
REMARK  status: ('A' for Active; 'I' for Inactive)
REMARK    1  A    between atoms: C_1  and  O_2
REMARK    2  A    between atoms: O_2  and  C_3
REMARK    3  A    between atoms: C_6  and  C_9
REMARK    4  A    between atoms: C_9  and  C_10
REMARK    5  A    between atoms: C_10  and  N_11
REMARK    6  A    between atoms: N_11  and  C_12
REMARK    7  A    between atoms: C_12  and  C_13
REMARK    8  A    between atoms: C_16  and  O_21
REMARK    9  A    between atoms: C_17  and  O_19
REMARK   10  A    between atoms: O_19  and  C_20
REMARK   11  A    between atoms: O_21  and  C_22
REMARK                            x       y       z     vdW  Elec       q    Type
REMARK                         _______ _______ _______ _____ _____    ______ ____
ROOT
ATOM      1  N   UNL     1       0.421   0.643   1.204  1.00  0.00    +0.000 NA
ATOM      2  H   UNL     1       0.067   1.412   1.771  1.00  0.00    +0.000 HD
ENDROOT
BRANCH   1   3
ATOM      3  C   UNL     1       0.405   1.052  -0.205  1.00  0.00    +0.000 C 
BRANCH   3   4
ATOM      4  C   UNL     1       1.115   0.105  -1.188  1.00  0.00    +0.000 C 
BRANCH   4   8
ATOM      5  C   UNL     1       5.420   0.043  -0.744  1.00  0.00    +0.000 A 
ATOM      6  C   UNL     1       4.618  -0.822   0.002  1.00  0.00    +0.000 A 
ATOM      7  C   UNL     1       3.228  -0.805  -0.138  1.00  0.00    +0.000 A 
ATOM      8  C   UNL     1       2.617   0.078  -1.034  1.00  0.00    +0.000 A 
ATOM      9  C   UNL     1       3.425   0.949  -1.777  1.00  0.00    +0.000 A 
ATOM     10  C   UNL     1       4.818   0.930  -1.635  1.00  0.00    +0.000 A 
BRANCH   5  12
ATOM     11  C   UNL     1       7.621   0.792  -1.237  1.00  0.00    +0.000 C 
ATOM     12  O   UNL     1       6.763  -0.078  -0.510  1.00  0.00    +0.000 OA
ENDBRANCH   5  12
ENDBRANCH   4   8
ENDBRANCH   3   4
ENDBRANCH   1   3
BRANCH   1  13
ATOM     13  C   UNL     1      -0.355  -0.560   1.508  1.00  0.00    +0.000 C 
BRANCH  13  14
ATOM     14  C   UNL     1      -1.847  -0.376   1.363  1.00  0.00    +0.000 A 
ATOM     15  C   UNL     1      -2.568   0.360   2.311  1.00  0.00    +0.000 A 
ATOM     16  C   UNL     1      -3.946   0.544   2.170  1.00  0.00    +0.000 A 
ATOM     17  C   UNL     1      -4.626  -0.003   1.078  1.00  0.00    +0.000 A 
ATOM     18  C   UNL     1      -3.911  -0.746   0.117  1.00  0.00    +0.000 A 
ATOM     19  C   UNL     1      -2.530  -0.925   0.267  1.00  0.00    +0.000 A 
BRANCH  18  20
ATOM     20  O   UNL     1      -4.649  -1.248  -0.928  1.00  0.00    +0.000 OA
ATOM     21  C   UNL     1      -3.973  -2.035  -1.897  1.00  0.00    +0.000 C 
ENDBRANCH  18  20
BRANCH  17  22
ATOM     22  O   UNL     1      -5.975   0.129   0.858  1.00  0.00    +0.000 OA
ATOM     23  C   UNL     1      -6.729   0.859   1.814  1.00  0.00    +0.000 C 
ENDBRANCH  17  22
ENDBRANCH  13  14
ENDBRANCH   1  13
TORSDOF 8
