REMARK  Name = /srv/my_project/app/compsite/backup/Dave/CORINA_stuff/newPDBs/SANC00211.pdb
AUTHORGENERATED BY OPEN BABEL 2.3.2
REMARK  10 active torsions:
REMARK  status: ('A' for Active; 'I' for Inactive)
REMARK    1  A    between atoms: C_1  and  C_2
REMARK    2  A    between atoms: C_2  and  C_25
REMARK    3  A    between atoms: C_3  and  C_4
REMARK    4  A    between atoms: C_4  and  C_5
REMARK    5  A    between atoms: C_5  and  C_7
REMARK    6  A    between atoms: C_7  and  C_8
REMARK    7  A    between atoms: C_9  and  C_10
REMARK    8  A    between atoms: N_11  and  O_12
REMARK    9  A    between atoms: O_12  and  C_13
REMARK   10  A    between atoms: C_13  and  C_14
REMARK                            x       y       z     vdW  Elec       q    Type
REMARK                         _______ _______ _______ _____ _____    ______ ____
ROOT
ATOM      1  C   UNL     1       0.364  -1.523   1.520  1.00  0.00    +0.000 C 
ATOM      2  N   UNL     1       1.550  -1.169   1.147  1.00  0.00    +0.000 NA
ENDROOT
BRANCH   1   5
ATOM      3  C   UNL     1      -1.921  -2.249   0.729  1.00  0.00    +0.000 C 
ATOM      4  C   UNL     1      -2.650  -1.968   2.018  1.00  0.00    +0.000 C 
ATOM      5  C   UNL     1      -0.603  -2.048   0.534  1.00  0.00    +0.000 C 
BRANCH   3   6
ATOM      6  C   UNL     1      -2.839  -2.738  -0.384  1.00  0.00    +0.000 C 
ATOM      7 BR   UNL     1      -2.142  -4.392  -1.179  1.00  0.00    +0.000 Br
BRANCH   6   8
ATOM      8  C   UNL     1      -3.194  -1.702  -1.468  1.00  0.00    +0.000 C 
BRANCH   8  11
ATOM      9  C   UNL     1      -1.788   1.089  -1.177  1.00  0.00    +0.000 C 
ATOM     10  C   UNL     1      -1.449   0.040  -2.203  1.00  0.00    +0.000 C 
ATOM     11  C   UNL     1      -2.047  -1.167  -2.294  1.00  0.00    +0.000 C 
BRANCH  10  12
ATOM     12  C   UNL     1      -0.312   0.407  -3.130  1.00  0.00    +0.000 C 
ATOM     13 CL   UNL     1      -0.845   1.618  -4.315  1.00  0.00    +0.000 Cl
ENDBRANCH  10  12
ENDBRANCH   8  11
ENDBRANCH   6   8
ENDBRANCH   3   6
ENDBRANCH   1   5
BRANCH   2  14
ATOM     14  O   UNL     1       2.254  -0.671   2.256  1.00  0.00    +0.000 OA
BRANCH  14  15
ATOM     15  C   UNL     1       3.475  -0.076   1.803  1.00  0.00    +0.000 C 
BRANCH  15  16
ATOM     16  C   UNL     1       3.196   1.267   1.194  1.00  0.00    +0.000 A 
ATOM     17  C   UNL     1       2.901   2.367   2.003  1.00  0.00    +0.000 A 
ATOM     18  F   UNL     1       2.928   2.236   3.337  1.00  0.00    +0.000 F 
ATOM     19  C   UNL     1       2.577   3.602   1.446  1.00  0.00    +0.000 A 
ATOM     20  F   UNL     1       2.299   4.643   2.243  1.00  0.00    +0.000 F 
ATOM     21  C   UNL     1       2.538   3.751   0.068  1.00  0.00    +0.000 A 
ATOM     22  F   UNL     1       2.221   4.937  -0.470  1.00  0.00    +0.000 F 
ATOM     23  C   UNL     1       2.826   2.670  -0.752  1.00  0.00    +0.000 A 
ATOM     24  F   UNL     1       2.784   2.807  -2.085  1.00  0.00    +0.000 F 
ATOM     25  C   UNL     1       3.154   1.438  -0.192  1.00  0.00    +0.000 A 
ATOM     26  F   UNL     1       3.430   0.407  -1.002  1.00  0.00    +0.000 F 
ENDBRANCH  15  16
ENDBRANCH  14  15
ENDBRANCH   2  14
TORSDOF 8
