REMARK  Name = 
REMARK  14 active torsions:
REMARK  status: ('A' for Active; 'I' for Inactive)
REMARK    1  A    between atoms: C_1  and  C_2
REMARK    2  A    between atoms: C_2  and  C_14
REMARK    3  A    between atoms: C_3  and  C_4
REMARK    4  A    between atoms: C_4  and  C_5
REMARK    5  A    between atoms: C_9  and  C_10
REMARK    6  A    between atoms: C_14  and  C_15
REMARK    7  A    between atoms: C_15  and  C_16
REMARK    8  A    between atoms: C_16  and  C_17
REMARK    9  A    between atoms: C_17  and  C_18
REMARK   10  A    between atoms: C_19  and  C_20
REMARK   11  A    between atoms: C_20  and  C_22
REMARK   12  A    between atoms: C_22  and  C_23
REMARK   13  A    between atoms: C_23  and  C_24
REMARK   14  A    between atoms: C_23  and  C_25
REMARK                            x       y       z     vdW  Elec       q    Type
REMARK                         _______ _______ _______ _____ _____    ______ ____
ROOT
ATOM      1  C   UNL     1       1.248  -2.758   0.089  1.00  0.00    +0.000 C 
ATOM      2  C   UNL     1       1.420  -1.333   0.548  1.00  0.00    +0.000 C 
ATOM      3  C   UNL     1       2.403  -0.509   0.132  1.00  0.00    +0.000 C 
ENDROOT
BRANCH   3   4
ATOM      4  C   UNL     1       3.549  -0.831  -0.793  1.00  0.00    +0.000 C 
BRANCH   4   5
ATOM      5  C   UNL     1       3.386  -0.326  -2.206  1.00  0.00    +0.000 C 
ATOM      6  C   UNL     1       2.278   0.217  -2.734  1.00  0.00    +0.000 C 
ATOM      7  C   UNL     1       2.200   0.690  -4.131  1.00  0.00    +0.000 C 
ATOM      8  O   UNL     1       1.159   1.165  -4.568  1.00  0.00    +0.000 OA
ATOM      9  C   UNL     1       3.420   0.568  -4.968  1.00  0.00    +0.000 C 
ATOM     10  C   UNL     1       3.329   1.075  -6.372  1.00  0.00    +0.000 C 
ATOM     11  C   UNL     1       4.528   0.024  -4.450  1.00  0.00    +0.000 C 
ATOM     12  C   UNL     1       4.596  -0.470  -3.060  1.00  0.00    +0.000 C 
ATOM     13  O   UNL     1       5.631  -0.981  -2.647  1.00  0.00    +0.000 OA
ENDBRANCH   4   5
ENDBRANCH   3   4
BRANCH   2  14
ATOM     14  C   UNL     1       0.364  -0.828   1.516  1.00  0.00    +0.000 C 
BRANCH  14  15
ATOM     15  C   UNL     1       0.525  -1.428   2.917  1.00  0.00    +0.000 C 
BRANCH  15  16
ATOM     16  C   UNL     1      -0.473  -0.862   3.935  1.00  0.00    +0.000 C 
BRANCH  16  17
ATOM     17  C   UNL     1      -1.917  -1.236   3.664  1.00  0.00    +0.000 C 
ATOM     18  C   UNL     1      -2.292  -2.629   4.113  1.00  0.00    +0.000 C 
ATOM     19  C   UNL     1      -2.853  -0.446   3.103  1.00  0.00    +0.000 C 
BRANCH  19  20
ATOM     20  C   UNL     1      -2.680   0.946   2.572  1.00  0.00    +0.000 C 
ATOM     21  O   UNL     1      -1.651   1.591   2.745  1.00  0.00    +0.000 OA
BRANCH  20  22
ATOM     22  C   UNL     1      -3.875   1.524   1.824  1.00  0.00    +0.000 C 
BRANCH  22  23
ATOM     23  C   UNL     1      -3.474   2.566   0.767  1.00  0.00    +0.000 C 
ATOM     24  C   UNL     1      -2.730   1.916  -0.403  1.00  0.00    +0.000 C 
ATOM     25  C   UNL     1      -4.716   3.295   0.253  1.00  0.00    +0.000 C 
ENDBRANCH  22  23
ENDBRANCH  20  22
ENDBRANCH  19  20
ENDBRANCH  16  17
ENDBRANCH  15  16
ENDBRANCH  14  15
ENDBRANCH   2  14
TORSDOF 9
