REMARK  Name = /srv/my_project/app/compsite/backup/Dave/CORINA_stuff/newPDBs/SANC00544.pdb
AUTHORGENERATED BY OPEN BABEL 2.3.2
REMARK  20 active torsions:
REMARK  status: ('A' for Active; 'I' for Inactive)
REMARK    1  A    between atoms: C_1  and  C_2
REMARK    2  A    between atoms: C_2  and  C_3
REMARK    3  A    between atoms: C_3  and  C_4
REMARK    4  A    between atoms: C_4  and  C_5
REMARK    5  A    between atoms: C_6  and  C_7
REMARK    6  A    between atoms: C_8  and  C_9
REMARK    7  A    between atoms: C_9  and  C_10
REMARK    8  A    between atoms: C_10  and  C_11
REMARK    9  A    between atoms: C_11  and  C_12
REMARK   10  A    between atoms: C_12  and  C_13
REMARK   11  A    between atoms: C_13  and  C_14
REMARK   12  A    between atoms: C_14  and  C_15
REMARK   13  A    between atoms: C_15  and  C_16
REMARK   14  A    between atoms: C_16  and  C_17
REMARK   15  A    between atoms: C_17  and  N_18
REMARK   16  A    between atoms: N_18  and  C_19
REMARK   17  A    between atoms: N_18  and  C_20
REMARK   18  A    between atoms: C_20  and  C_21
REMARK   19  A    between atoms: C_21  and  N_22
REMARK   20  A    between atoms: N_22  and  C_23
REMARK                            x       y       z     vdW  Elec       q    Type
REMARK                         _______ _______ _______ _____ _____    ______ ____
ROOT
ATOM      1  C   UNL     1      -0.485  -1.644   0.124  1.00  0.00    +0.000 C 
ENDROOT
BRANCH   1   2
ATOM      2  C   UNL     1      -0.072  -0.789  -1.077  1.00  0.00    +0.000 C 
BRANCH   2   3
ATOM      3  C   UNL     1      -0.308   0.707  -0.863  1.00  0.00    +0.000 C 
BRANCH   3   4
ATOM      4  C   UNL     1       0.512   1.378   0.244  1.00  0.00    +0.000 C 
BRANCH   4   5
ATOM      5  C   UNL     1       2.027   1.400  -0.009  1.00  0.00    +0.000 C 
BRANCH   5   6
ATOM      6  C   UNL     1       2.772   0.272   0.724  1.00  0.00    +0.000 C 
BRANCH   6   7
ATOM      7  N   UNL     1       4.229   0.205   0.519  1.00  0.00    +0.000 NA
ATOM      8  C   UNL     1       4.577  -0.078  -0.872  1.00  0.00    +0.000 C 
BRANCH   7   9
ATOM      9  C   UNL     1       4.930   1.389   1.046  1.00  0.00    +0.000 C 
BRANCH   9  10
ATOM     10  C   UNL     1       6.474   1.259   1.110  1.00  0.00    +0.000 C 
BRANCH  10  11
ATOM     11  N   UNL     1       7.131   1.684  -0.136  1.00  0.00    +0.000 NA
ATOM     12  C   UNL     1       8.578   1.559  -0.030  1.00  0.00    +0.000 C 
ATOM     13  H   UNL     1       6.886   2.653  -0.335  1.00  0.00    +0.000 HD
ENDBRANCH  10  11
ENDBRANCH   9  10
ENDBRANCH   7   9
ENDBRANCH   6   7
ENDBRANCH   5   6
ENDBRANCH   4   5
ENDBRANCH   3   4
ENDBRANCH   2   3
ENDBRANCH   1   2
BRANCH   1  14
ATOM     14  C   UNL     1      -0.236  -3.140  -0.082  1.00  0.00    +0.000 C 
BRANCH  14  15
ATOM     15  C   UNL     1      -1.011  -3.821  -1.218  1.00  0.00    +0.000 C 
BRANCH  15  16
ATOM     16  C   UNL     1      -2.525  -3.894  -1.009  1.00  0.00    +0.000 C 
BRANCH  16  18
ATOM     17  C   UNL     1      -3.792  -1.677  -1.790  1.00  0.00    +0.000 C 
ATOM     18  C   UNL     1      -3.221  -2.674  -1.440  1.00  0.00    +0.000 C 
BRANCH  17  20
ATOM     19  C   UNL     1      -4.762   0.521  -1.390  1.00  0.00    +0.000 C 
ATOM     20  C   UNL     1      -4.457  -0.496  -2.210  1.00  0.00    +0.000 C 
BRANCH  19  21
ATOM     21  C   UNL     1      -4.453   0.624   0.079  1.00  0.00    +0.000 C 
BRANCH  21  22
ATOM     22  C   UNL     1      -5.692   0.481   0.969  1.00  0.00    +0.000 C 
BRANCH  22  24
ATOM     23  C   UNL     1      -7.857   1.486   1.778  1.00  0.00    +0.000 C 
ATOM     24  C   UNL     1      -6.694   1.627   0.808  1.00  0.00    +0.000 C 
ENDBRANCH  22  24
ENDBRANCH  21  22
ENDBRANCH  19  21
ENDBRANCH  17  20
ENDBRANCH  16  18
ENDBRANCH  15  16
ENDBRANCH  14  15
ENDBRANCH   1  14
TORSDOF 17
