REMARK  Name = /srv/my_project/app/compsite/backup/Dave/CORINA_stuff/newPDBs/SANC00256.pdb
AUTHORGENERATED BY OPEN BABEL 2.3.2
REMARK  2 active torsions:
REMARK  status: ('A' for Active; 'I' for Inactive)
REMARK    1  A    between atoms: CA_7  and  C_11
REMARK    2  A    between atoms: C_11  and  OXT_13
REMARK                            x       y       z     vdW  Elec       q    Type
REMARK                         _______ _______ _______ _____ _____    ______ ____
ROOT
ATOM      1  C   UNL     1      -2.193   0.340  -0.357  1.00  0.00    +0.000 C 
ATOM      2  C   UNL     1      -2.178  -1.175  -0.626  1.00  0.00    +0.000 C 
ATOM      3  N   UNL     1      -1.225  -1.892   0.216  1.00  0.00    +0.000 N 
ATOM      4  C   UNL     1       0.064  -1.443   0.446  1.00  0.00    +0.000 C 
ATOM      5  O   UNL     1       0.892  -2.178   0.970  1.00  0.00    +0.000 OA
ATOM      6  C   UNL     1       0.283  -0.045   0.079  1.00  0.00    +0.000 A 
ATOM      7  CA  UNL     1       1.455   0.696   0.022  1.00  0.00    +0.000 A 
ATOM      8  N   UNL     1       1.086   1.999  -0.256  1.00  0.00    +0.000 N 
ATOM      9  C   UNL     1      -0.263   2.085  -0.483  1.00  0.00    +0.000 A 
ATOM     10  C   UNL     1      -0.790   0.833  -0.282  1.00  0.00    +0.000 A 
ATOM     11  H   UNL     1      -1.338  -2.885   0.371  1.00  0.00    +0.000 HD
ATOM     12  H   UNL     1       1.744   2.766  -0.321  1.00  0.00    +0.000 HD
ENDROOT
BRANCH   7  13
ATOM     13  C   UNL     1       2.834   0.345   0.204  1.00  0.00    +0.000 C 
ATOM     14  O   UNL     1       3.740   1.107   0.507  1.00  0.00    +0.000 OA
BRANCH  13  15
ATOM     15  OXT UNL     1       3.082  -0.938  -0.104  1.00  0.00    +0.000 OA
ATOM     16  HXT UNL     1       4.030  -1.060   0.092  1.00  0.00    +0.000 HD
ENDBRANCH  13  15
ENDBRANCH   7  13
TORSDOF 2
