REMARK  Name = SANCDB_00729_minRM1.pdb
AUTHORGENERATED BY OPEN BABEL 2.3.2
REMARK  7 active torsions:
REMARK  status: ('A' for Active; 'I' for Inactive)
REMARK    1  A    between atoms: C_1  and  C_2
REMARK    2  A    between atoms: C_2  and  C_13
REMARK    3  A    between atoms: C_3  and  C_4
REMARK    4  A    between atoms: C_4  and  C_5
REMARK    5  A    between atoms: C_5  and  C_7
REMARK    6  A    between atoms: C_7  and  C_8
REMARK    7  A    between atoms: C_9  and  C_10
REMARK                            x       y       z     vdW  Elec       q    Type
REMARK                         _______ _______ _______ _____ _____    ______ ____
ROOT
ATOM      1  C   UNL     1      -0.873   0.167   0.353  1.00  0.00    +0.000 C 
ATOM      2 BR   UNL     1      -0.746  -0.576   2.170  1.00  0.00    +0.000 Br
ENDROOT
BRANCH   1   3
ATOM      3  C   UNL     1      -2.193  -0.318  -0.225  1.00  0.00    +0.000 C 
ATOM      4  C   UNL     1      -2.205  -1.699  -0.839  1.00  0.00    +0.000 C 
ATOM      5  C   UNL     1      -3.329   0.417  -0.234  1.00  0.00    +0.000 C 
BRANCH   5   6
ATOM      6  C   UNL     1      -3.560   1.778   0.359  1.00  0.00    +0.000 C 
ATOM      7 CL   UNL     1      -5.122   1.805   1.210  1.00  0.00    +0.000 Cl
ATOM      8 CL   UNL     1      -3.550   2.988  -0.941  1.00  0.00    +0.000 Cl
ENDBRANCH   5   6
ENDBRANCH   1   3
BRANCH   1   9
ATOM      9  C   UNL     1       0.379  -0.206  -0.461  1.00  0.00    +0.000 C 
BRANCH   9  12
ATOM     10  C   UNL     1       3.896   0.978   0.829  1.00  0.00    +0.000 C 
ATOM     11  C   UNL     1       2.751   0.058   0.485  1.00  0.00    +0.000 C 
ATOM     12  C   UNL     1       1.613   0.557  -0.040  1.00  0.00    +0.000 C 
BRANCH  11  13
ATOM     13  C   UNL     1       2.983  -1.391   0.817  1.00  0.00    +0.000 C 
ATOM     14 BR   UNL     1       3.906  -2.237  -0.671  1.00  0.00    +0.000 Br
ENDBRANCH  11  13
ENDBRANCH   9  12
ENDBRANCH   1   9
TORSDOF 5
