REMARK  Name = SANCDB_00763_minRM1.pdb
AUTHORGENERATED BY OPEN BABEL 2.3.2
REMARK  14 active torsions:
REMARK  status: ('A' for Active; 'I' for Inactive)
REMARK    1  A    between atoms: C_1  and  C_2
REMARK    2  A    between atoms: C_2  and  C_3
REMARK    3  A    between atoms: C_3  and  C_4
REMARK    4  A    between atoms: C_4  and  C_5
REMARK    5  A    between atoms: C_5  and  C_6
REMARK    6  A    between atoms: C_6  and  C_7
REMARK    7  A    between atoms: C_6  and  O_17
REMARK    8  A    between atoms: C_7  and  N_8
REMARK    9  A    between atoms: N_8  and  C_9
REMARK   10  A    between atoms: C_9  and  C_10
REMARK   11  A    between atoms: C_11  and  C_12
REMARK   12  A    between atoms: C_13  and  C_14
REMARK   13  A    between atoms: C_14  and  C_15
REMARK   14  A    between atoms: C_15  and  C_16
REMARK                            x       y       z     vdW  Elec       q    Type
REMARK                         _______ _______ _______ _____ _____    ______ ____
ROOT
ATOM      1  N   UNL     1      -0.295  -1.149  -1.044  1.00  0.00    +0.000 NA
ATOM      2  H   UNL     1       0.246  -1.680  -1.729  1.00  0.00    +0.000 HD
ENDROOT
BRANCH   1   3
ATOM      3  C   UNL     1      -1.608  -0.838  -1.640  1.00  0.00    +0.000 C 
BRANCH   3   4
ATOM      4  C   UNL     1      -2.624  -0.352  -0.582  1.00  0.00    +0.000 C 
BRANCH   4   5
ATOM      5  O   UNL     1      -2.613  -1.288   0.499  1.00  0.00    +0.000 OA
ATOM      6  H   UNL     1      -1.680  -1.580   0.564  1.00  0.00    +0.000 HD
ENDBRANCH   4   5
BRANCH   4   7
ATOM      7  C   UNL     1      -4.034  -0.254  -1.173  1.00  0.00    +0.000 C 
BRANCH   7   8
ATOM      8  C   UNL     1      -5.026   0.557  -0.328  1.00  0.00    +0.000 C 
BRANCH   8   9
ATOM      9  C   UNL     1      -5.368  -0.071   1.025  1.00  0.00    +0.000 C 
BRANCH   9  11
ATOM     10  C   UNL     1      -7.816   0.644   1.162  1.00  0.00    +0.000 C 
ATOM     11  C   UNL     1      -6.437   0.705   1.800  1.00  0.00    +0.000 C 
ENDBRANCH   9  11
ENDBRANCH   8   9
ENDBRANCH   7   8
ENDBRANCH   4   7
ENDBRANCH   3   4
ENDBRANCH   1   3
BRANCH   1  12
ATOM     12  C   UNL     1       0.464   0.062  -0.727  1.00  0.00    +0.000 C 
BRANCH  12  13
ATOM     13  C   UNL     1       1.793  -0.335  -0.162  1.00  0.00    +0.000 C 
ATOM     14  C   UNL     1       2.973   0.027  -0.688  1.00  0.00    +0.000 C 
BRANCH  14  15
ATOM     15  C   UNL     1       4.239  -0.365  -0.115  1.00  0.00    +0.000 C 
ATOM     16  C   UNL     1       5.419  -0.002  -0.638  1.00  0.00    +0.000 C 
BRANCH  16  17
ATOM     17  C   UNL     1       6.747  -0.405  -0.061  1.00  0.00    +0.000 C 
BRANCH  17  18
ATOM     18  C   UNL     1       7.548   0.816   0.392  1.00  0.00    +0.000 C 
ATOM     19  C   UNL     1       8.898   0.413   0.965  1.00  0.00    +0.000 C 
ENDBRANCH  17  18
ENDBRANCH  16  17
ENDBRANCH  14  15
ENDBRANCH  12  13
ENDBRANCH   1  12
TORSDOF 12
