REMARK  Name = SANCDB_00964_minRM1.pdb
AUTHORGENERATED BY OPEN BABEL 2.3.2
REMARK  20 active torsions:
REMARK  status: ('A' for Active; 'I' for Inactive)
REMARK    1  A    between atoms: C_1  and  C_2
REMARK    2  A    between atoms: C_4  and  O_38
REMARK    3  A    between atoms: C_5  and  C_17
REMARK    4  A    between atoms: C_11  and  C_13
REMARK    5  A    between atoms: C_13  and  C_14
REMARK    6  A    between atoms: C_14  and  C_16
REMARK    7  A    between atoms: C_18  and  O_27
REMARK    8  A    between atoms: C_19  and  O_26
REMARK    9  A    between atoms: C_20  and  O_25
REMARK   10  A    between atoms: C_21  and  C_23
REMARK   11  A    between atoms: C_23  and  O_24
REMARK   12  A    between atoms: O_27  and  C_28
REMARK   13  A    between atoms: C_28  and  C_30
REMARK   14  A    between atoms: C_31  and  C_32
REMARK   15  A    between atoms: O_38  and  C_39
REMARK   16  A    between atoms: C_40  and  O_49
REMARK   17  A    between atoms: C_41  and  O_48
REMARK   18  A    between atoms: C_42  and  O_47
REMARK   19  A    between atoms: C_43  and  C_45
REMARK   20  A    between atoms: C_45  and  O_46
REMARK                            x       y       z     vdW  Elec       q    Type
REMARK                         _______ _______ _______ _____ _____    ______ ____
ROOT
ATOM      1  C   UNL     1      -5.421  -1.955   0.794  1.00  0.00    +0.000 C 
ATOM      2  C   UNL     1      -3.949  -1.693   0.625  1.00  0.00    +0.000 A 
ATOM      3  C   UNL     1      -3.507  -0.361   0.587  1.00  0.00    +0.000 A 
ATOM      4  C   UNL     1      -2.154  -0.024   0.425  1.00  0.00    +0.000 A 
ATOM      5  C   UNL     1      -1.177  -1.037   0.355  1.00  0.00    +0.000 A 
ATOM      6  C   UNL     1      -1.643  -2.383   0.321  1.00  0.00    +0.000 A 
ATOM      7  C   UNL     1      -3.000  -2.714   0.469  1.00  0.00    +0.000 A 
ATOM      8  C   UNL     1      -3.375  -4.151   0.452  1.00  0.00    +0.000 A 
ATOM      9  O   UNL     1      -4.515  -4.560   0.626  1.00  0.00    +0.000 OA
ATOM     10  C   UNL     1      -2.295  -5.122   0.224  1.00  0.00    +0.000 A 
ATOM     11  C   UNL     1      -1.041  -4.685   0.071  1.00  0.00    +0.000 A 
ATOM     12  O   UNL     1      -0.687  -3.355   0.117  1.00  0.00    +0.000 OA
ENDROOT
BRANCH   5  13
ATOM     13  C   UNL     1       0.340  -0.781   0.232  1.00  0.00    +0.000 C 
ATOM     14  C   UNL     1       0.991   0.623   0.376  1.00  0.00    +0.000 C 
ATOM     15  C   UNL     1       1.251   1.006   1.847  1.00  0.00    +0.000 C 
ATOM     16  C   UNL     1       1.988  -0.103   2.607  1.00  0.00    +0.000 C 
ATOM     17  C   UNL     1       1.335  -1.478   2.376  1.00  0.00    +0.000 C 
ATOM     18  O   UNL     1       1.110  -1.752   0.987  1.00  0.00    +0.000 OA
BRANCH  15  19
ATOM     19  O   UNL     1       0.038   1.319   2.535  1.00  0.00    +0.000 OA
ATOM     20  H   UNL     1      -0.258   2.192   2.190  1.00  0.00    +0.000 HD
ENDBRANCH  15  19
BRANCH  16  21
ATOM     21  O   UNL     1       3.361  -0.133   2.174  1.00  0.00    +0.000 OA
ATOM     22  H   UNL     1       3.810  -0.812   2.707  1.00  0.00    +0.000 HD
ENDBRANCH  16  21
BRANCH  14  23
ATOM     23  O   UNL     1       2.256   0.570  -0.346  1.00  0.00    +0.000 OA
BRANCH  23  24
ATOM     24  C   UNL     1       2.782   1.756  -0.724  1.00  0.00    +0.000 C 
ATOM     25  O   UNL     1       2.263   2.853  -0.575  1.00  0.00    +0.000 OA
BRANCH  24  26
ATOM     26  C   UNL     1       4.092   1.590  -1.386  1.00  0.00    +0.000 C 
ATOM     27  C   UNL     1       4.756   0.426  -1.451  1.00  0.00    +0.000 C 
BRANCH  27  28
ATOM     28  C   UNL     1       6.068   0.270  -2.091  1.00  0.00    +0.000 A 
ATOM     29  C   UNL     1       6.400   0.919  -3.288  1.00  0.00    +0.000 A 
ATOM     30  C   UNL     1       7.650   0.721  -3.881  1.00  0.00    +0.000 A 
ATOM     31  C   UNL     1       8.576  -0.136  -3.289  1.00  0.00    +0.000 A 
ATOM     32  C   UNL     1       8.252  -0.799  -2.107  1.00  0.00    +0.000 A 
ATOM     33  C   UNL     1       7.002  -0.601  -1.515  1.00  0.00    +0.000 A 
ENDBRANCH  27  28
ENDBRANCH  24  26
ENDBRANCH  23  24
ENDBRANCH  14  23
BRANCH  17  34
ATOM     34  C   UNL     1       0.093  -1.722   3.245  1.00  0.00    +0.000 C 
BRANCH  34  35
ATOM     35  O   UNL     1       0.449  -1.731   4.626  1.00  0.00    +0.000 OA
ATOM     36  H   UNL     1      -0.384  -1.778   5.128  1.00  0.00    +0.000 HD
ENDBRANCH  34  35
ENDBRANCH  17  34
ENDBRANCH   5  13
BRANCH   4  37
ATOM     37  O   UNL     1      -1.732   1.263   0.273  1.00  0.00    +0.000 OA
BRANCH  37  38
ATOM     38  C   UNL     1      -2.636   2.363   0.445  1.00  0.00    +0.000 C 
ATOM     39  C   UNL     1      -1.778   3.647   0.447  1.00  0.00    +0.000 C 
ATOM     40  C   UNL     1      -2.680   4.879   0.528  1.00  0.00    +0.000 C 
ATOM     41  C   UNL     1      -3.761   4.849  -0.555  1.00  0.00    +0.000 C 
ATOM     42  C   UNL     1      -4.505   3.510  -0.506  1.00  0.00    +0.000 C 
ATOM     43  O   UNL     1      -3.581   2.417  -0.630  1.00  0.00    +0.000 OA
BRANCH  39  44
ATOM     44  O   UNL     1      -0.865   3.672   1.559  1.00  0.00    +0.000 OA
ATOM     45  H   UNL     1      -0.428   4.550   1.497  1.00  0.00    +0.000 HD
ENDBRANCH  39  44
BRANCH  40  46
ATOM     46  O   UNL     1      -1.875   6.059   0.399  1.00  0.00    +0.000 OA
ATOM     47  H   UNL     1      -2.485   6.787   0.165  1.00  0.00    +0.000 HD
ENDBRANCH  40  46
BRANCH  41  48
ATOM     48  O   UNL     1      -4.634   5.967  -0.368  1.00  0.00    +0.000 OA
ATOM     49  H   UNL     1      -5.141   5.846   0.456  1.00  0.00    +0.000 HD
ENDBRANCH  41  48
BRANCH  42  50
ATOM     50  C   UNL     1      -5.519   3.388  -1.647  1.00  0.00    +0.000 C 
BRANCH  50  51
ATOM     51  O   UNL     1      -6.192   2.132  -1.541  1.00  0.00    +0.000 OA
ATOM     52  H   UNL     1      -5.493   1.452  -1.599  1.00  0.00    +0.000 HD
ENDBRANCH  50  51
ENDBRANCH  42  50
ENDBRANCH  37  38
ENDBRANCH   4  37
BRANCH  11  53
ATOM     53  C   UNL     1       0.122  -5.609  -0.134  1.00  0.00    +0.000 C 
BRANCH  53  54
ATOM     54  C   UNL     1       0.634  -5.480  -1.556  1.00  0.00    +0.000 C 
ATOM     55  O   UNL     1       0.109  -6.097  -2.485  1.00  0.00    +0.000 OA
ATOM     56  C   UNL     1       1.778  -4.529  -1.794  1.00  0.00    +0.000 C 
ENDBRANCH  53  54
ENDBRANCH  11  53
TORSDOF 18
