REMARK  Name = /srv/my_project/app/compsite/backup/Dave/CORINA_stuff/newPDBs/SANC00236.pdb
AUTHORGENERATED BY OPEN BABEL 2.3.2
REMARK  8 active torsions:
REMARK  status: ('A' for Active; 'I' for Inactive)
REMARK    1  A    between atoms: C_1  and  C_2
REMARK    2  A    between atoms: C_2  and  C_3
REMARK    3  A    between atoms: C_7  and  C_8
REMARK    4  A    between atoms: C_7  and  C_10
REMARK    5  A    between atoms: C_16  and  C_18
REMARK    6  A    between atoms: C_25  and  O_27
REMARK    7  A    between atoms: O_27  and  C_28
REMARK    8  A    between atoms: C_28  and  C_29
REMARK                            x       y       z     vdW  Elec       q    Type
REMARK                         _______ _______ _______ _____ _____    ______ ____
ROOT
ATOM      1  C   UNL     1       0.136   0.559   0.408  1.00  0.00    +0.000 A 
ATOM      2  C   UNL     1       0.908   1.111   1.481  1.00  0.00    +0.000 A 
ATOM      3  C   UNL     1       2.239   0.749   1.748  1.00  0.00    +0.000 A 
ATOM      4  C   UNL     1       2.825  -0.190   0.940  1.00  0.00    +0.000 A 
ATOM      5  C   UNL     1       2.117  -0.692  -0.126  1.00  0.00    +0.000 A 
ATOM      6  C   UNL     1       0.803  -0.364  -0.438  1.00  0.00    +0.000 A 
ATOM      7  C   UNL     1       0.292  -1.167  -1.617  1.00  0.00    +0.000 C 
ATOM      8  C   UNL     1       0.687  -0.577  -2.977  1.00  0.00    +0.000 C 
ATOM      9  C   UNL     1       0.811  -2.616  -1.584  1.00  0.00    +0.000 C 
ATOM     10  O   UNL     1       0.121  -3.547  -1.995  1.00  0.00    +0.000 OA
ATOM     11  O   UNL     1       2.080  -2.842  -1.137  1.00  0.00    +0.000 OA
ATOM     12  C   UNL     1       2.912  -1.725  -0.822  1.00  0.00    +0.000 C 
ATOM     13  O   UNL     1       3.938  -2.045   0.139  1.00  0.00    +0.000 OA
ATOM     14  C   UNL     1       4.143  -0.884   0.999  1.00  0.00    +0.000 C 
ENDROOT
BRANCH   1  21
ATOM     15  C   UNL     1      -4.114  -1.848   0.165  1.00  0.00    +0.000 C 
ATOM     16  C   UNL     1      -3.713  -0.394   0.511  1.00  0.00    +0.000 C 
ATOM     17  C   UNL     1      -4.500  -0.006   1.778  1.00  0.00    +0.000 C 
ATOM     18  C   UNL     1      -4.126   0.531  -0.654  1.00  0.00    +0.000 C 
ATOM     19  C   UNL     1      -3.026   0.669  -1.695  1.00  0.00    +0.000 C 
ATOM     20  C   UNL     1      -1.797   1.368  -1.115  1.00  0.00    +0.000 C 
ATOM     21  C   UNL     1      -1.391   0.899   0.313  1.00  0.00    +0.000 C 
ATOM     22  C   UNL     1      -1.787   2.071   1.262  1.00  0.00    +0.000 C 
ATOM     23  C   UNL     1      -2.180  -0.368   0.779  1.00  0.00    +0.000 C 
ENDBRANCH   1  21
BRANCH  14  24
ATOM     24  O   UNL     1       5.170  -0.069   0.445  1.00  0.00    +0.000 OA
BRANCH  24  25
ATOM     25  C   UNL     1       5.801   0.724   1.347  1.00  0.00    +0.000 C 
ATOM     26  C   UNL     1       6.867   1.526   0.665  1.00  0.00    +0.000 C 
ATOM     27  O   UNL     1       5.547   0.792   2.541  1.00  0.00    +0.000 OA
ENDBRANCH  24  25
ENDBRANCH  14  24
TORSDOF 3
