REMARK  Name = SANCDB_00803_minRM1.pdb
AUTHORGENERATED BY OPEN BABEL 2.3.2
REMARK  4 active torsions:
REMARK  status: ('A' for Active; 'I' for Inactive)
REMARK    1  A    between atoms: C_1  and  C_2
REMARK    2  A    between atoms: C_2  and  C_3
REMARK    3  A    between atoms: C_3  and  C_4
REMARK    4  A    between atoms: C_3  and  O_10
REMARK                            x       y       z     vdW  Elec       q    Type
REMARK                         _______ _______ _______ _____ _____    ______ ____
ROOT
ATOM      1  C   UNL     1      -0.154   0.112  -0.247  1.00  0.00    +0.000 C 
ATOM      2  C   UNL     1      -1.106   1.275   0.096  1.00  0.00    +0.000 C 
ATOM      3  C   UNL     1      -2.561   0.915  -0.198  1.00  0.00    +0.000 C 
ATOM      4  C   UNL     1      -2.938  -0.404   0.465  1.00  0.00    +0.000 C 
ATOM      5  C   UNL     1      -1.936  -1.500   0.111  1.00  0.00    +0.000 C 
ATOM      6  N   UNL     1      -0.567  -1.116   0.458  1.00  0.00    +0.000 NA
ATOM      7  H   UNL     1      -0.515  -0.952   1.465  1.00  0.00    +0.000 HD
ENDROOT
BRANCH   1   8
ATOM      8  C   UNL     1       1.320   0.491   0.084  1.00  0.00    +0.000 C 
BRANCH   8  10
ATOM      9  C   UNL     1       3.752  -0.250   0.072  1.00  0.00    +0.000 C 
ATOM     10  C   UNL     1       2.316  -0.625  -0.272  1.00  0.00    +0.000 C 
ENDBRANCH   8  10
BRANCH   8  11
ATOM     11  O   UNL     1       1.684   1.682  -0.624  1.00  0.00    +0.000 OA
ATOM     12  H   UNL     1       1.701   1.463  -1.571  1.00  0.00    +0.000 HD
ENDBRANCH   8  11
ENDBRANCH   1   8
TORSDOF 3
