REMARK  Name = /srv/my_project/app/compsite/backup/Dave/CORINA_stuff/newPDBs/SANC00537.pdb
AUTHORGENERATED BY OPEN BABEL 2.3.2
REMARK  8 active torsions:
REMARK  status: ('A' for Active; 'I' for Inactive)
REMARK    1  A    between atoms: C_1  and  O_2
REMARK    2  A    between atoms: O_2  and  C_3
REMARK    3  A    between atoms: C_3  and  C_4
REMARK    4  A    between atoms: C_7  and  O_8
REMARK    5  A    between atoms: C_7  and  C_9
REMARK    6  A    between atoms: C_9  and  C_10
REMARK    7  A    between atoms: C_9  and  C_11
REMARK    8  A    between atoms: C_19  and  C_20
REMARK                            x       y       z     vdW  Elec       q    Type
REMARK                         _______ _______ _______ _____ _____    ______ ____
ROOT
ATOM      1  C   UNL     1       0.231  -1.887  -1.674  1.00  0.00    +0.000 C 
ATOM      2  C   UNL     1      -0.908  -2.408  -2.581  1.00  0.00    +0.000 C 
ATOM      3  C   UNL     1      -0.317  -1.033  -0.527  1.00  0.00    +0.000 C 
ATOM      4  C   UNL     1      -1.509  -0.403  -0.471  1.00  0.00    +0.000 C 
ATOM      5  C   UNL     1      -2.187   0.399   0.643  1.00  0.00    +0.000 C 
ATOM      6  C   UNL     1      -1.352   0.575   1.958  1.00  0.00    +0.000 C 
ATOM      7  C   UNL     1      -1.028   2.017   2.405  1.00  0.00    +0.000 C 
ATOM      8  C   UNL     1       0.205   2.589   1.796  1.00  0.00    +0.000 C 
ATOM      9  C   UNL     1       0.863   2.245   0.693  1.00  0.00    +0.000 C 
ATOM     10  C   UNL     1       2.175   2.913   0.588  1.00  0.00    +0.000 C 
ATOM     11  C   UNL     1       3.359   1.939   0.784  1.00  0.00    +0.000 C 
ATOM     12  C   UNL     1       3.373   0.620   0.011  1.00  0.00    +0.000 C 
ATOM     13  C   UNL     1       4.147  -0.465   0.719  1.00  0.00    +0.000 C 
ATOM     14  C   UNL     1       2.754   0.446  -1.176  1.00  0.00    +0.000 C 
ATOM     15  C   UNL     1       2.643  -0.823  -1.980  1.00  0.00    +0.000 C 
ATOM     16  C   UNL     1       1.240  -1.094  -2.556  1.00  0.00    +0.000 C 
ATOM     17  O   UNL     1       2.145   3.840   1.682  1.00  0.00    +0.000 OA
ATOM     18  C   UNL     1       1.030   3.620   2.440  1.00  0.00    +0.000 C 
ATOM     19  O   UNL     1       0.763   4.191   3.481  1.00  0.00    +0.000 OA
ENDROOT
BRANCH   5  20
ATOM     20  C   UNL     1      -3.592  -0.227   1.004  1.00  0.00    +0.000 C 
ATOM     21  C   UNL     1      -4.483  -0.531  -0.214  1.00  0.00    +0.000 C 
ATOM     22  C   UNL     1      -4.414   0.677   1.945  1.00  0.00    +0.000 C 
ENDBRANCH   5  20
BRANCH   1  24
ATOM     23  C   UNL     1       1.313  -4.076  -1.781  1.00  0.00    +0.000 C 
ATOM     24  O   UNL     1       0.873  -2.981  -0.993  1.00  0.00    +0.000 OA
ENDBRANCH   1  24
BRANCH   5  25
ATOM     25  O   UNL     1      -2.456   1.678   0.056  1.00  0.00    +0.000 OA
ATOM     26  H   UNL     1      -1.642   1.990  -0.370  1.00  0.00    +0.000 HD
ENDBRANCH   5  25
TORSDOF 3
