REMARK  Name = /srv/my_project/app/compsite/backup/Dave/CORINA_stuff/newPDBs/SANC00289.pdb
AUTHORGENERATED BY OPEN BABEL 2.3.2
REMARK  10 active torsions:
REMARK  status: ('A' for Active; 'I' for Inactive)
REMARK    1  A    between atoms: C_12  and  N_13
REMARK    2  A    between atoms: C_16  and  C_17
REMARK    3  A    between atoms: C_22  and  C_23
REMARK    4  A    between atoms: C_26  and  O_27
REMARK    5  A    between atoms: C_26  and  C_28
REMARK    6  A    between atoms: C_28  and  C_29
REMARK    7  A    between atoms: C_29  and  C_30
REMARK    8  A    between atoms: C_30  and  C_31
REMARK    9  A    between atoms: C_30  and  C_32
REMARK   10  A    between atoms: C_32  and  C_34
REMARK                            x       y       z     vdW  Elec       q    Type
REMARK                         _______ _______ _______ _____ _____    ______ ____
ROOT
ATOM      1  C   UNL     1       1.344   1.710  -3.086  1.00  0.00    +0.000 C 
ATOM      2  C   UNL     1      -0.188   1.640  -2.981  1.00  0.00    +0.000 C 
ATOM      3  C   UNL     1      -0.424   1.210  -1.533  1.00  0.00    +0.000 C 
ATOM      4  C   UNL     1      -1.794   0.647  -1.138  1.00  0.00    +0.000 C 
ATOM      5  C   UNL     1      -2.926   1.619  -1.502  1.00  0.00    +0.000 C 
ATOM      6  C   UNL     1      -4.286   1.145  -0.994  1.00  0.00    +0.000 C 
ATOM      7  C   UNL     1      -4.247   0.875   0.514  1.00  0.00    +0.000 C 
ATOM      8  C   UNL     1      -5.645   0.545   1.061  1.00  0.00    +0.000 C 
ATOM      9  C   UNL     1      -5.609   0.396   2.587  1.00  0.00    +0.000 C 
ATOM     10  C   UNL     1      -4.561  -0.624   3.037  1.00  0.00    +0.000 C 
ATOM     11  C   UNL     1      -3.176  -0.325   2.450  1.00  0.00    +0.000 C 
ATOM     12  C   UNL     1      -3.172  -0.191   0.900  1.00  0.00    +0.000 C 
ATOM     13  C   UNL     1      -3.485  -1.581   0.289  1.00  0.00    +0.000 C 
ATOM     14  C   UNL     1      -1.780   0.342   0.394  1.00  0.00    +0.000 C 
ATOM     15  C   UNL     1      -0.570  -0.539   0.799  1.00  0.00    +0.000 C 
ATOM     16  C   UNL     1       0.779  -0.022   0.264  1.00  0.00    +0.000 C 
ATOM     17  C   UNL     1       0.750   0.235  -1.252  1.00  0.00    +0.000 C 
ATOM     18  C   UNL     1       0.583  -1.115  -1.997  1.00  0.00    +0.000 C 
ATOM     19  C   UNL     1       1.914   1.133  -1.778  1.00  0.00    +0.000 C 
ATOM     20  C   UNL     1       3.260   0.603  -2.255  1.00  0.00    +0.000 C 
ATOM     21  C   UNL     1       2.917   0.157  -3.678  1.00  0.00    +0.000 C 
ATOM     22  O   UNL     1       3.494  -0.693  -4.337  1.00  0.00    +0.000 OA
ATOM     23  O   UNL     1       1.825   0.859  -4.129  1.00  0.00    +0.000 OA
ENDROOT
BRANCH   9  24
ATOM     24  N   UNL     1      -6.925   0.012   3.098  1.00  0.00    +0.000 NA
ATOM     25  H   UNL     1      -7.625   0.680   2.777  1.00  0.00    +0.000 HD
ATOM     26  H   UNL     1      -7.198  -0.889   2.707  1.00  0.00    +0.000 HD
ENDBRANCH   9  24
BRANCH  20  27
ATOM     27  O   UNL     1       4.155   1.726  -2.393  1.00  0.00    +0.000 OA
ATOM     28  H   UNL     1       4.285   2.130  -1.518  1.00  0.00    +0.000 HD
ENDBRANCH  20  27
BRANCH  20  29
ATOM     29  C   UNL     1       3.960  -0.473  -1.421  1.00  0.00    +0.000 C 
BRANCH  29  30
ATOM     30  C   UNL     1       4.400   0.005  -0.027  1.00  0.00    +0.000 C 
BRANCH  30  31
ATOM     31  C   UNL     1       4.795  -1.158   0.914  1.00  0.00    +0.000 C 
ATOM     32  C   UNL     1       6.063  -1.870   0.428  1.00  0.00    +0.000 C 
BRANCH  31  33
ATOM     33  C   UNL     1       4.962  -0.737   2.373  1.00  0.00    +0.000 C 
ATOM     34  C   UNL     1       5.375   0.479   2.770  1.00  0.00    +0.000 C 
ATOM     35  C   UNL     1       4.620  -1.793   3.393  1.00  0.00    +0.000 C 
ENDBRANCH  31  33
ENDBRANCH  30  31
ENDBRANCH  29  30
ENDBRANCH  20  29
TORSDOF 6
