REMARK  Name = SANCDB01049.pdb
REMARK  21 active torsions:
REMARK  status: ('A' for Active; 'I' for Inactive)
REMARK    1  A    between atoms: C_1  and  C_2
REMARK    2  A    between atoms: C_4  and  O_39
REMARK    3  A    between atoms: C_5  and  C_17
REMARK    4  A    between atoms: C_11  and  C_13
REMARK    5  A    between atoms: C_13  and  C_14
REMARK    6  A    between atoms: C_14  and  C_16
REMARK    7  A    between atoms: C_18  and  O_27
REMARK    8  A    between atoms: C_19  and  O_26
REMARK    9  A    between atoms: C_20  and  O_25
REMARK   10  A    between atoms: C_21  and  C_23
REMARK   11  A    between atoms: C_23  and  O_24
REMARK   12  A    between atoms: O_27  and  C_28
REMARK   13  A    between atoms: C_28  and  C_30
REMARK   14  A    between atoms: C_31  and  C_32
REMARK   15  A    between atoms: C_35  and  O_38
REMARK   16  A    between atoms: O_39  and  C_40
REMARK   17  A    between atoms: C_41  and  O_50
REMARK   18  A    between atoms: C_42  and  O_49
REMARK   19  A    between atoms: C_43  and  O_48
REMARK   20  A    between atoms: C_44  and  C_46
REMARK   21  A    between atoms: C_46  and  O_47
REMARK                            x       y       z     vdW  Elec       q    Type
REMARK                         _______ _______ _______ _____ _____    ______ ____
ROOT
ATOM      1  C   UNL     1      -4.855   1.995  -2.975  1.00  0.00    +0.000 C 
ATOM      2  C   UNL     1      -3.632   1.601  -2.190  1.00  0.00    +0.000 A 
ATOM      3  C   UNL     1      -3.377   0.237  -2.003  1.00  0.00    +0.000 A 
ATOM      4  C   UNL     1      -2.261  -0.199  -1.286  1.00  0.00    +0.000 A 
ATOM      5  C   UNL     1      -1.353   0.728  -0.706  1.00  0.00    +0.000 A 
ATOM      6  C   UNL     1      -1.618   2.102  -0.892  1.00  0.00    +0.000 A 
ATOM      7  C   UNL     1      -2.735   2.535  -1.638  1.00  0.00    +0.000 A 
ATOM      8  C   UNL     1      -2.925   3.996  -1.826  1.00  0.00    +0.000 A 
ATOM      9  O   UNL     1      -3.772   4.488  -2.559  1.00  0.00    +0.000 OA
ATOM     10  C   UNL     1      -2.032   4.883  -1.075  1.00  0.00    +0.000 A 
ATOM     11  C   UNL     1      -1.037   4.354  -0.357  1.00  0.00    +0.000 A 
ATOM     12  O   UNL     1      -0.753   3.002  -0.316  1.00  0.00    +0.000 OA
ENDROOT
BRANCH   5  13
ATOM     13  C   UNL     1      -0.118   0.154   0.010  1.00  0.00    +0.000 C 
ATOM     14  C   UNL     1       1.138   0.970   0.424  1.00  0.00    +0.000 C 
ATOM     15  C   UNL     1       1.189   1.375   1.910  1.00  0.00    +0.000 C 
ATOM     16  C   UNL     1       0.657   0.279   2.849  1.00  0.00    +0.000 C 
ATOM     17  C   UNL     1      -0.635  -0.384   2.355  1.00  0.00    +0.000 C 
ATOM     18  O   UNL     1      -0.478  -0.837   1.001  1.00  0.00    +0.000 OA
BRANCH  15  19
ATOM     19  O   UNL     1       0.558   2.628   2.148  1.00  0.00    +0.000 OA
ATOM     20  H   UNL     1      -0.414   2.491   2.075  1.00  0.00    +0.000 HD
ENDBRANCH  15  19
BRANCH  16  21
ATOM     21  O   UNL     1       1.659  -0.751   2.966  1.00  0.00    +0.000 OA
ATOM     22  H   UNL     1       1.691  -1.220   2.110  1.00  0.00    +0.000 HD
ENDBRANCH  16  21
BRANCH  14  23
ATOM     23  O   UNL     1       2.274   0.066   0.201  1.00  0.00    +0.000 OA
BRANCH  23  24
ATOM     24  C   UNL     1       3.447   0.654  -0.143  1.00  0.00    +0.000 C 
ATOM     25  O   UNL     1       3.639   1.846  -0.304  1.00  0.00    +0.000 OA
BRANCH  24  26
ATOM     26  C   UNL     1       4.461  -0.408  -0.289  1.00  0.00    +0.000 C 
ATOM     27  C   UNL     1       5.715  -0.089  -0.641  1.00  0.00    +0.000 C 
BRANCH  27  28
ATOM     28  C   UNL     1       6.786  -1.077  -0.823  1.00  0.00    +0.000 A 
ATOM     29  C   UNL     1       6.938  -2.182   0.027  1.00  0.00    +0.000 A 
ATOM     30  C   UNL     1       7.987  -3.087  -0.161  1.00  0.00    +0.000 A 
ATOM     31  C   UNL     1       8.892  -2.880  -1.196  1.00  0.00    +0.000 A 
ATOM     32  C   UNL     1       8.768  -1.783  -2.039  1.00  0.00    +0.000 A 
ATOM     33  C   UNL     1       7.720  -0.879  -1.849  1.00  0.00    +0.000 A 
BRANCH  31  34
ATOM     34  O   UNL     1       9.929  -3.736  -1.417  1.00  0.00    +0.000 OA
ATOM     35  H   UNL     1       9.898  -4.442  -0.750  1.00  0.00    +0.000 HD
ENDBRANCH  31  34
ENDBRANCH  27  28
ENDBRANCH  24  26
ENDBRANCH  23  24
ENDBRANCH  14  23
BRANCH  17  36
ATOM     36  C   UNL     1      -1.930   0.409   2.596  1.00  0.00    +0.000 C 
BRANCH  36  37
ATOM     37  O   UNL     1      -1.820   1.758   2.171  1.00  0.00    +0.000 OA
ATOM     38  H   UNL     1      -2.660   2.212   2.388  1.00  0.00    +0.000 HD
ENDBRANCH  36  37
ENDBRANCH  17  36
ENDBRANCH   5  13
BRANCH   4  39
ATOM     39  O   UNL     1      -1.955  -1.519  -1.102  1.00  0.00    +0.000 OA
BRANCH  39  40
ATOM     40  C   UNL     1      -2.775  -2.559  -1.642  1.00  0.00    +0.000 C 
ATOM     41  C   UNL     1      -2.009  -3.878  -1.400  1.00  0.00    +0.000 C 
ATOM     42  C   UNL     1      -1.864  -4.139   0.112  1.00  0.00    +0.000 C 
ATOM     43  C   UNL     1      -2.970  -3.459   0.941  1.00  0.00    +0.000 C 
ATOM     44  C   UNL     1      -4.256  -3.366   0.119  1.00  0.00    +0.000 C 
ATOM     45  O   UNL     1      -4.093  -2.572  -1.076  1.00  0.00    +0.000 OA
BRANCH  41  46
ATOM     46  O   UNL     1      -2.694  -4.985  -2.006  1.00  0.00    +0.000 OA
ATOM     47  H   UNL     1      -2.709  -4.841  -2.969  1.00  0.00    +0.000 HD
ENDBRANCH  41  46
BRANCH  42  48
ATOM     48  O   UNL     1      -0.589  -3.686   0.604  1.00  0.00    +0.000 OA
ATOM     49  H   UNL     1      -0.572  -2.706   0.541  1.00  0.00    +0.000 HD
ENDBRANCH  42  48
BRANCH  43  50
ATOM     50  O   UNL     1      -3.159  -4.164   2.169  1.00  0.00    +0.000 OA
ATOM     51  H   UNL     1      -2.267  -4.360   2.518  1.00  0.00    +0.000 HD
ENDBRANCH  43  50
BRANCH  44  52
ATOM     52  C   UNL     1      -5.396  -2.731   0.923  1.00  0.00    +0.000 C 
BRANCH  52  53
ATOM     53  O   UNL     1      -6.569  -2.632   0.110  1.00  0.00    +0.000 OA
ATOM     54  H   UNL     1      -6.257  -2.316  -0.759  1.00  0.00    +0.000 HD
ENDBRANCH  52  53
ENDBRANCH  44  52
ENDBRANCH  39  40
ENDBRANCH   4  39
BRANCH  11  55
ATOM     55  C   UNL     1      -0.115   5.208   0.469  1.00  0.00    +0.000 C 
BRANCH  55  56
ATOM     56  C   UNL     1      -0.597   5.301   1.914  1.00  0.00    +0.000 C 
ATOM     57  O   UNL     1      -1.732   4.975   2.270  1.00  0.00    +0.000 OA
ATOM     58  C   UNL     1       0.384   5.884   2.899  1.00  0.00    +0.000 C 
ENDBRANCH  55  56
ENDBRANCH  11  55
TORSDOF 19
