REMARK  Name = /srv/my_project/app/compsite/backup/Dave/CORINA_stuff/newPDBs/SANC00196.pdb
AUTHORGENERATED BY OPEN BABEL 2.3.2
REMARK  10 active torsions:
REMARK  status: ('A' for Active; 'I' for Inactive)
REMARK    1  A    between atoms: C_1  and  C_2
REMARK    2  A    between atoms: C_2  and  C_3
REMARK    3  A    between atoms: C_8  and  O_10
REMARK    4  A    between atoms: C_11  and  C_12
REMARK    5  A    between atoms: C_11  and  C_13
REMARK    6  A    between atoms: C_13  and  O_14
REMARK    7  A    between atoms: C_19  and  C_20
REMARK    8  A    between atoms: C_23  and  O_25
REMARK    9  A    between atoms: O_25  and  C_26
REMARK   10  A    between atoms: C_26  and  C_27
REMARK                            x       y       z     vdW  Elec       q    Type
REMARK                         _______ _______ _______ _____ _____    ______ ____
ROOT
ATOM      1  C   UNL     1       0.272  -0.476  -0.514  1.00  0.00    +0.000 C 
ATOM      2  C   UNL     1       1.364  -1.554  -0.194  1.00  0.00    +0.000 C 
ATOM      3  C   UNL     1       2.831  -1.116  -0.352  1.00  0.00    +0.000 C 
ATOM      4 BR   UNL     1       3.555  -0.663   1.432  1.00  0.00    +0.000 Br
ATOM      5  C   UNL     1       3.079  -0.017  -1.397  1.00  0.00    +0.000 C 
ATOM      6  C   UNL     1       4.537   0.475  -1.436  1.00  0.00    +0.000 C 
ATOM      7 CL   UNL     1       2.830  -0.790  -3.039  1.00  0.00    +0.000 Cl
ATOM      8  C   UNL     1       2.119   1.187  -1.262  1.00  0.00    +0.000 C 
ATOM      9  C   UNL     1       0.854   0.962  -0.397  1.00  0.00    +0.000 C 
ENDROOT
BRANCH   1  17
ATOM     10  C   UNL     1      -2.474   1.525   0.577  1.00  0.00    +0.000 C 
ATOM     11  C   UNL     1      -2.404   0.130  -0.082  1.00  0.00    +0.000 C 
ATOM     12  C   UNL     1      -2.580   0.341  -1.602  1.00  0.00    +0.000 C 
ATOM     13  C   UNL     1      -3.533  -0.753   0.516  1.00  0.00    +0.000 C 
ATOM     14 BR   UNL     1      -5.341  -0.382  -0.089  1.00  0.00    +0.000 Br
ATOM     15  C   UNL     1      -3.154  -2.195   0.223  1.00  0.00    +0.000 C 
ATOM     16  C   UNL     1      -1.629  -2.211   0.069  1.00  0.00    +0.000 C 
ATOM     17  C   UNL     1      -1.097  -0.743   0.310  1.00  0.00    +0.000 C 
ATOM     18  C   UNL     1      -0.844  -0.629   1.851  1.00  0.00    +0.000 C 
BRANCH  16  19
ATOM     19  O   UNL     1      -1.323  -2.697  -1.238  1.00  0.00    +0.000 OA
ATOM     20  H   UNL     1      -1.703  -3.593  -1.316  1.00  0.00    +0.000 HD
ENDBRANCH  16  19
ENDBRANCH   1  17
BRANCH   1  21
ATOM     21  O   UNL     1      -0.003  -0.635  -1.919  1.00  0.00    +0.000 OA
ATOM     22  H   UNL     1      -0.459  -1.499  -2.024  1.00  0.00    +0.000 HD
ENDBRANCH   1  21
BRANCH   9  23
ATOM     23  O   UNL     1       1.161   1.276   0.975  1.00  0.00    +0.000 OA
BRANCH  23  24
ATOM     24  C   UNL     1       1.157   2.594   1.322  1.00  0.00    +0.000 C 
ATOM     25  C   UNL     1       1.517   2.742   2.768  1.00  0.00    +0.000 C 
ATOM     26  O   UNL     1       0.911   3.527   0.573  1.00  0.00    +0.000 OA
ENDBRANCH  23  24
ENDBRANCH   9  23
TORSDOF 5
