REMARK  Name = 
REMARK  12 active torsions:
REMARK  status: ('A' for Active; 'I' for Inactive)
REMARK    1  A    between atoms: C_4  and  C_5
REMARK    2  A    between atoms: C_6  and  O_8
REMARK    3  A    between atoms: O_8  and  C_9
REMARK    4  A    between atoms: C_9  and  C_10
REMARK    5  A    between atoms: C_14  and  C_15
REMARK    6  A    between atoms: C_17  and  O_19
REMARK    7  A    between atoms: O_19  and  C_20
REMARK    8  A    between atoms: C_20  and  C_22
REMARK    9  A    between atoms: C_22  and  C_26
REMARK   10  A    between atoms: C_23  and  C_24
REMARK   11  A    between atoms: C_24  and  O_25
REMARK   12  A    between atoms: C_26  and  O_27
REMARK                            x       y       z     vdW  Elec       q    Type
REMARK                         _______ _______ _______ _____ _____    ______ ____
ROOT
ATOM      1  C   UNL     1       0.344  -0.011  -1.684  1.00  0.00    +0.000 C 
ATOM      2  C   UNL     1       1.090   1.265  -1.390  1.00  0.00    +0.000 C 
ATOM      3  C   UNL     1       2.160   1.588  -0.632  1.00  0.00    +0.000 C 
ATOM      4  C   UNL     1       2.607   3.037  -0.593  1.00  0.00    +0.000 C 
ATOM      5  C   UNL     1       3.013   0.633   0.189  1.00  0.00    +0.000 C 
ATOM      6  C   UNL     1       2.728   0.798   1.699  1.00  0.00    +0.000 C 
ATOM      7  C   UNL     1       2.200  -0.455   2.347  1.00  0.00    +0.000 C 
ATOM      8  C   UNL     1       0.927  -0.895   2.348  1.00  0.00    +0.000 C 
ATOM      9  C   UNL     1       0.565  -2.152   3.100  1.00  0.00    +0.000 C 
ATOM     10  C   UNL     1      -0.222  -0.202   1.640  1.00  0.00    +0.000 C 
ATOM     11  C   UNL     1      -0.792  -0.999   0.447  1.00  0.00    +0.000 C 
ATOM     12  C   UNL     1       0.218  -1.183  -0.708  1.00  0.00    +0.000 C 
ATOM     13  C   UNL     1      -0.121  -2.248  -1.714  1.00  0.00    +0.000 C 
ATOM     14  C   UNL     1      -0.848  -3.367  -1.607  1.00  0.00    +0.000 C 
ATOM     15  C   UNL     1       0.502  -1.854  -3.002  1.00  0.00    +0.000 C 
ATOM     16  O   UNL     1       0.633  -2.555  -3.988  1.00  0.00    +0.000 OA
ATOM     17  O   UNL     1       0.922  -0.567  -2.876  1.00  0.00    +0.000 OA
ENDROOT
BRANCH   5  18
ATOM     18  O   UNL     1       4.397   0.937  -0.098  1.00  0.00    +0.000 OA
BRANCH  18  19
ATOM     19  C   UNL     1       5.292  -0.041   0.201  1.00  0.00    +0.000 C 
ATOM     20  C   UNL     1       6.672   0.394  -0.188  1.00  0.00    +0.000 C 
ATOM     21  O   UNL     1       5.028  -1.116   0.720  1.00  0.00    +0.000 OA
ENDBRANCH  18  19
ENDBRANCH   5  18
BRANCH  11  22
ATOM     22  O   UNL     1      -1.962  -0.311  -0.052  1.00  0.00    +0.000 OA
BRANCH  22  23
ATOM     23  C   UNL     1      -3.141  -0.591   0.559  1.00  0.00    +0.000 C 
ATOM     24  O   UNL     1      -3.289  -1.379   1.481  1.00  0.00    +0.000 OA
BRANCH  23  25
ATOM     25  C   UNL     1      -4.275   0.166  -0.051  1.00  0.00    +0.000 C 
ATOM     26  C   UNL     1      -4.031   1.284  -0.768  1.00  0.00    +0.000 C 
BRANCH  26  27
ATOM     27  C   UNL     1      -5.026   2.205  -1.392  1.00  0.00    +0.000 C 
BRANCH  27  28
ATOM     28  O   UNL     1      -4.585   3.535  -1.138  1.00  0.00    +0.000 OA
ATOM     29  H   UNL     1      -4.754   3.707  -0.196  1.00  0.00    +0.000 HD
ENDBRANCH  27  28
ENDBRANCH  26  27
BRANCH  25  30
ATOM     30  C   UNL     1      -5.605  -0.470   0.249  1.00  0.00    +0.000 C 
BRANCH  30  31
ATOM     31  O   UNL     1      -6.581  -0.143  -0.732  1.00  0.00    +0.000 OA
ATOM     32  H   UNL     1      -7.381  -0.651  -0.509  1.00  0.00    +0.000 HD
ENDBRANCH  30  31
ENDBRANCH  25  30
ENDBRANCH  23  25
ENDBRANCH  22  23
ENDBRANCH  11  22
TORSDOF 9
