REMARK  Name = SANCDB_00900_minRM1.pdb
AUTHORGENERATED BY OPEN BABEL 2.3.2
REMARK  5 active torsions:
REMARK  status: ('A' for Active; 'I' for Inactive)
REMARK    1  A    between atoms: C_1  and  C_2
REMARK    2  A    between atoms: C_8  and  C_14
REMARK    3  A    between atoms: C_11  and  C_12
REMARK    4  A    between atoms: C_11  and  O_13
REMARK    5  A    between atoms: C_14  and  C_16
REMARK                            x       y       z     vdW  Elec       q    Type
REMARK                         _______ _______ _______ _____ _____    ______ ____
ROOT
ATOM      1  C   UNL     1      -2.346   2.687  -0.600  1.00  0.00    +0.000 C 
ATOM      2  C   UNL     1      -2.045   1.318   0.002  1.00  0.00    +0.000 C 
ATOM      3  C   UNL     1      -3.154   0.300  -0.284  1.00  0.00    +0.000 C 
ATOM      4  C   UNL     1      -2.507  -0.765  -1.153  1.00  0.00    +0.000 C 
ATOM      5  C   UNL     1      -1.030  -0.812  -0.717  1.00  0.00    +0.000 C 
ATOM      6  C   UNL     1      -0.743   0.699  -0.571  1.00  0.00    +0.000 C 
ATOM      7  C   UNL     1       0.490   1.150   0.217  1.00  0.00    +0.000 C 
ATOM      8  C   UNL     1       1.750   0.302  -0.029  1.00  0.00    +0.000 C 
ATOM      9  C   UNL     1       1.780  -0.922   0.903  1.00  0.00    +0.000 C 
ATOM     10  C   UNL     1       0.807  -2.046   0.551  1.00  0.00    +0.000 C 
ATOM     11  C   UNL     1      -0.702  -1.707   0.512  1.00  0.00    +0.000 C 
ATOM     12  C   UNL     1      -1.467  -3.043   0.465  1.00  0.00    +0.000 C 
ENDROOT
BRANCH   8  13
ATOM     13  C   UNL     1       3.043   1.098   0.175  1.00  0.00    +0.000 C 
ATOM     14  C   UNL     1       3.212   2.026   1.133  1.00  0.00    +0.000 C 
ATOM     15  C   UNL     1       4.160   0.772  -0.782  1.00  0.00    +0.000 C 
ENDBRANCH   8  13
BRANCH  11  16
ATOM     16  O   UNL     1      -1.076  -1.058   1.724  1.00  0.00    +0.000 OA
ATOM     17  H   UNL     1      -0.821  -1.633   2.467  1.00  0.00    +0.000 HD
ENDBRANCH  11  16
TORSDOF 2
