REMARK  Name = SANCDB_00922_minRM1.pdb
AUTHORGENERATED BY OPEN BABEL 2.3.2
REMARK  5 active torsions:
REMARK  status: ('A' for Active; 'I' for Inactive)
REMARK    1  A    between atoms: C_1  and  C_2
REMARK    2  A    between atoms: C_5  and  C_8
REMARK    3  A    between atoms: C_5  and  O_11
REMARK    4  A    between atoms: C_8  and  C_9
REMARK    5  A    between atoms: C_8  and  C_10
REMARK                            x       y       z     vdW  Elec       q    Type
REMARK                         _______ _______ _______ _____ _____    ______ ____
ROOT
ATOM      1  C   UNL     1       3.206   0.076  -1.222  1.00  0.00    +0.000 C 
ATOM      2  C   UNL     1       1.959   0.206  -0.396  1.00  0.00    +0.000 C 
ATOM      3  C   UNL     1       1.148   1.273  -0.495  1.00  0.00    +0.000 C 
ATOM      4  C   UNL     1      -0.121   1.436   0.289  1.00  0.00    +0.000 C 
ATOM      5  C   UNL     1      -0.652   0.151   0.973  1.00  0.00    +0.000 C 
ATOM      6  C   UNL     1       0.533  -0.668   1.527  1.00  0.00    +0.000 C 
ATOM      7  C   UNL     1       1.679  -0.931   0.552  1.00  0.00    +0.000 C 
ENDROOT
BRANCH   5   8
ATOM      8  C   UNL     1      -1.638  -0.699   0.099  1.00  0.00    +0.000 C 
ATOM      9  C   UNL     1      -1.128  -1.097  -1.289  1.00  0.00    +0.000 C 
ATOM     10  C   UNL     1      -3.013  -0.026  -0.079  1.00  0.00    +0.000 C 
ENDBRANCH   5   8
BRANCH   5  11
ATOM     11  O   UNL     1      -1.382   0.549   2.157  1.00  0.00    +0.000 OA
ATOM     12  H   UNL     1      -1.952   1.301   1.925  1.00  0.00    +0.000 HD
ENDBRANCH   5  11
TORSDOF 2
