REMARK  Name = /srv/my_project/app/compsite/backup/Dave/CORINA_stuff/newPDBs/SANC00399.pdb
AUTHORGENERATED BY OPEN BABEL 2.3.2
REMARK  24 active torsions:
REMARK  status: ('A' for Active; 'I' for Inactive)
REMARK    1  A    between atoms: C_2  and  O_3
REMARK    2  A    between atoms: O_3  and  C_4
REMARK    3  A    between atoms: C_6  and  O_8
REMARK    4  A    between atoms: C_9  and  O_11
REMARK    5  A    between atoms: C_12  and  C_14
REMARK    6  A    between atoms: C_14  and  O_15
REMARK    7  A    between atoms: C_17  and  O_19
REMARK    8  A    between atoms: O_19  and  C_20
REMARK    9  A    between atoms: C_24  and  C_25
REMARK   10  A    between atoms: C_36  and  O_38
REMARK   11  A    between atoms: O_38  and  C_39
REMARK   12  A    between atoms: C_41  and  C_42
REMARK   13  A    between atoms: C_43  and  C_45
REMARK   14  A    between atoms: C_46  and  C_47
REMARK   15  A    between atoms: C_46  and  C_48
REMARK   16  A    between atoms: C_49  and  O_51
REMARK   17  A    between atoms: C_62  and  C_64
REMARK   18  A    between atoms: C_65  and  O_67
REMARK   19  A    between atoms: O_67  and  C_68
REMARK   20  A    between atoms: C_68  and  C_70
REMARK   21  A    between atoms: C_73  and  O_74
REMARK   22  A    between atoms: O_74  and  C_75
REMARK   23  A    between atoms: C_78  and  O_80
REMARK   24  A    between atoms: C_81  and  O_83
REMARK                            x       y       z     vdW  Elec       q    Type
REMARK                         _______ _______ _______ _____ _____    ______ ____
ROOT
ATOM      1  C   UNL     1       4.003   2.468   2.481  1.00  0.00    +0.000 C 
ATOM      2  C   UNL     1       3.832   1.817   3.871  1.00  0.00    +0.000 C 
ATOM      3  C   UNL     1       3.756   0.285   3.768  1.00  0.00    +0.000 C 
ATOM      4  C   UNL     1       2.746  -0.181   2.709  1.00  0.00    +0.000 C 
ATOM      5  O   UNL     1       2.961   0.476   1.444  1.00  0.00    +0.000 OA
ATOM      6  C   UNL     1       2.969   1.905   1.474  1.00  0.00    +0.000 C 
ENDROOT
BRANCH   3   7
ATOM      7  O   UNL     1       5.054  -0.234   3.432  1.00  0.00    +0.000 OA
ATOM      8  H   UNL     1       5.304   0.162   2.575  1.00  0.00    +0.000 HD
ENDBRANCH   3   7
BRANCH   2   9
ATOM      9  O   UNL     1       2.690   2.319   4.562  1.00  0.00    +0.000 OA
ATOM     10  H   UNL     1       2.835   3.264   4.744  1.00  0.00    +0.000 HD
ENDBRANCH   2   9
BRANCH   6  11
ATOM     11  O   UNL     1       1.666   2.410   1.729  1.00  0.00    +0.000 OA
BRANCH  11  12
ATOM     12  C   UNL     1       1.211   3.407   0.806  1.00  0.00    +0.000 C 
ATOM     13  C   UNL     1      -0.006   4.087   1.436  1.00  0.00    +0.000 C 
ATOM     14  C   UNL     1      -1.187   3.120   1.574  1.00  0.00    +0.000 C 
ATOM     15  C   UNL     1      -1.617   2.432   0.244  1.00  0.00    +0.000 C 
ATOM     16  C   UNL     1      -2.293   3.479  -0.673  1.00  0.00    +0.000 C 
ATOM     17  C   UNL     1      -0.377   1.901  -0.487  1.00  0.00    +0.000 C 
ATOM     18  C   UNL     1      -0.330   0.679  -1.048  1.00  0.00    +0.000 C 
ATOM     19  C   UNL     1      -1.456  -0.307  -1.046  1.00  0.00    +0.000 C 
ATOM     20  C   UNL     1      -2.803   0.287  -0.607  1.00  0.00    +0.000 C 
ATOM     21  C   UNL     1      -2.603   1.248   0.596  1.00  0.00    +0.000 C 
ATOM     22  C   UNL     1      -3.953   1.706   1.200  1.00  0.00    +0.000 C 
ATOM     23  C   UNL     1      -4.953   0.560   1.455  1.00  0.00    +0.000 C 
ATOM     24  C   UNL     1      -5.170  -0.288   0.187  1.00  0.00    +0.000 C 
ATOM     25  C   UNL     1      -6.063   0.485  -0.817  1.00  0.00    +0.000 C 
ATOM     26  O   UNL     1      -7.411  -0.015  -0.664  1.00  0.00    +0.000 OA
ATOM     27  C   UNL     1      -7.421  -1.206   0.148  1.00  0.00    +0.000 C 
ATOM     28  C   UNL     1      -8.095  -0.849   1.488  1.00  0.00    +0.000 C 
ATOM     29  C   UNL     1      -8.217  -2.363  -0.520  1.00  0.00    +0.000 C 
ATOM     30  C   UNL     1      -7.548  -2.865  -1.814  1.00  0.00    +0.000 C 
ATOM     31  O   UNL     1      -6.209  -2.458  -1.979  1.00  0.00    +0.000 OA
ATOM     32  C   UNL     1      -5.421  -2.503  -0.800  1.00  0.00    +0.000 C 
ATOM     33  C   UNL     1      -4.037  -1.957  -1.189  1.00  0.00    +0.000 C 
ATOM     34  C   UNL     1      -3.785  -0.820  -0.210  1.00  0.00    +0.000 C 
ATOM     35  C   UNL     1      -5.958  -1.591   0.339  1.00  0.00    +0.000 C 
ATOM     36  C   UNL     1       0.830   2.815  -0.560  1.00  0.00    +0.000 C 
BRANCH  29  37
ATOM     37  C   UNL     1      -9.668  -1.985  -0.807  1.00  0.00    +0.000 C 
ATOM     38  C   UNL     1     -10.788  -2.667  -0.493  1.00  0.00    +0.000 C 
ATOM     39  C   UNL     1     -12.144  -2.109  -0.838  1.00  0.00    +0.000 C 
ATOM     40  C   UNL     1     -10.829  -4.005   0.191  1.00  0.00    +0.000 C 
ENDBRANCH  29  37
BRANCH  25  41
ATOM     41  O   UNL     1      -5.614   0.338  -2.156  1.00  0.00    +0.000 OA
ATOM     42  C   UNL     1      -6.407   1.067  -3.079  1.00  0.00    +0.000 C 
ENDBRANCH  25  41
BRANCH  30  43
ATOM     43  O   UNL     1      -7.587  -4.288  -1.849  1.00  0.00    +0.000 OA
ATOM     44  H   UNL     1      -7.347  -4.510  -2.764  1.00  0.00    +0.000 HD
ENDBRANCH  30  43
ENDBRANCH  11  12
ENDBRANCH   6  11
BRANCH   4  45
ATOM     45  C   UNL     1       1.287  -0.105   3.187  1.00  0.00    +0.000 C 
BRANCH  45  46
ATOM     46  O   UNL     1       0.416  -0.611   2.174  1.00  0.00    +0.000 OA
ATOM     47  H   UNL     1       0.590  -0.055   1.389  1.00  0.00    +0.000 HD
ENDBRANCH  45  46
ENDBRANCH   4  45
BRANCH   1  48
ATOM     48  O   UNL     1       5.362   2.204   2.063  1.00  0.00    +0.000 OA
BRANCH  48  49
ATOM     49  C   UNL     1       5.869   3.126   1.103  1.00  0.00    +0.000 C 
ATOM     50  O   UNL     1       5.429   2.819  -0.223  1.00  0.00    +0.000 OA
ATOM     51  C   UNL     1       5.874   1.532  -0.686  1.00  0.00    +0.000 C 
ATOM     52  C   UNL     1       5.265   1.314  -2.068  1.00  0.00    +0.000 C 
ATOM     53  C   UNL     1       7.407   1.448  -0.730  1.00  0.00    +0.000 C 
ATOM     54  C   UNL     1       7.977   1.811   0.650  1.00  0.00    +0.000 C 
ATOM     55  C   UNL     1       7.410   3.149   1.139  1.00  0.00    +0.000 C 
BRANCH  55  56
ATOM     56  O   UNL     1       7.923   4.207   0.305  1.00  0.00    +0.000 OA
ATOM     57  H   UNL     1       7.348   4.276  -0.481  1.00  0.00    +0.000 HD
ENDBRANCH  55  56
BRANCH  54  58
ATOM     58  O   UNL     1       9.408   1.888   0.600  1.00  0.00    +0.000 OA
ATOM     59  H   UNL     1       9.627   2.726   0.147  1.00  0.00    +0.000 HD
ENDBRANCH  54  58
BRANCH  53  60
ATOM     60  O   UNL     1       7.797   0.100  -1.057  1.00  0.00    +0.000 OA
BRANCH  60  61
ATOM     61  C   UNL     1       8.838  -0.028  -1.919  1.00  0.00    +0.000 C 
ATOM     62  O   UNL     1       9.395   0.884  -2.509  1.00  0.00    +0.000 OA
BRANCH  61  63
ATOM     63  C   UNL     1       9.201  -1.461  -2.087  1.00  0.00    +0.000 A 
ATOM     64  C   UNL     1      10.184  -1.789  -3.026  1.00  0.00    +0.000 A 
ATOM     65  C   UNL     1      10.554  -3.123  -3.219  1.00  0.00    +0.000 A 
ATOM     66  C   UNL     1       9.953  -4.144  -2.479  1.00  0.00    +0.000 A 
ATOM     67  C   UNL     1       8.974  -3.820  -1.539  1.00  0.00    +0.000 A 
ATOM     68  C   UNL     1       8.599  -2.484  -1.343  1.00  0.00    +0.000 A 
BRANCH  66  69
ATOM     69  O   UNL     1      10.407  -5.401  -2.767  1.00  0.00    +0.000 OA
ATOM     70  C   UNL     1       9.840  -6.476  -2.029  1.00  0.00    +0.000 C 
ENDBRANCH  66  69
ENDBRANCH  61  63
ENDBRANCH  60  61
ENDBRANCH  53  60
ENDBRANCH  48  49
ENDBRANCH   1  48
TORSDOF 17
