REMARK  Name = SANCDB_00994_minRM1.pdb
AUTHORGENERATED BY OPEN BABEL 2.3.2
REMARK  3 active torsions:
REMARK  status: ('A' for Active; 'I' for Inactive)
REMARK    1  A    between atoms: C_1  and  C_2
REMARK    2  A    between atoms: C_4  and  O_19
REMARK    3  A    between atoms: C_10  and  O_13
REMARK                            x       y       z     vdW  Elec       q    Type
REMARK                         _______ _______ _______ _____ _____    ______ ____
ROOT
ATOM      1  C   UNL     1      -1.517   2.100   2.237  1.00  0.00    +0.000 C 
ATOM      2  C   UNL     1      -0.635   1.580   1.117  1.00  0.00    +0.000 C 
ATOM      3  C   UNL     1       0.546   1.007   1.441  1.00  0.00    +0.000 C 
ATOM      4  C   UNL     1       1.665   0.372   0.654  1.00  0.00    +0.000 C 
ATOM      5  C   UNL     1       1.429  -0.056  -0.803  1.00  0.00    +0.000 C 
ATOM      6  C   UNL     1       0.747  -1.402  -1.088  1.00  0.00    +0.000 C 
ATOM      7  C   UNL     1      -0.209  -2.071  -0.083  1.00  0.00    +0.000 C 
ATOM      8  C   UNL     1      -1.401  -1.345   0.516  1.00  0.00    +0.000 C 
ATOM      9  C   UNL     1      -1.639  -1.503   1.835  1.00  0.00    +0.000 C 
ATOM     10  C   UNL     1      -2.347  -0.579  -0.392  1.00  0.00    +0.000 C 
ATOM     11  C   UNL     1      -1.798   0.669  -1.094  1.00  0.00    +0.000 C 
ATOM     12  C   UNL     1      -1.224   1.827  -0.253  1.00  0.00    +0.000 C 
ATOM     13  O   UNL     1       1.808  -2.358  -1.338  1.00  0.00    +0.000 OA
ATOM     14  C   UNL     1       2.965  -1.728  -1.653  1.00  0.00    +0.000 C 
ATOM     15  O   UNL     1       3.995  -2.263  -2.017  1.00  0.00    +0.000 OA
ATOM     16  C   UNL     1       2.734  -0.279  -1.509  1.00  0.00    +0.000 C 
ATOM     17  C   UNL     1       3.579   0.633  -2.006  1.00  0.00    +0.000 C 
ENDROOT
BRANCH  10  18
ATOM     18  O   UNL     1      -3.523  -0.192   0.325  1.00  0.00    +0.000 OA
ATOM     19  H   UNL     1      -4.212  -0.005  -0.333  1.00  0.00    +0.000 HD
ENDBRANCH  10  18
BRANCH   4  20
ATOM     20  O   UNL     1       2.131  -0.755   1.397  1.00  0.00    +0.000 OA
ATOM     21  H   UNL     1       2.483  -0.430   2.244  1.00  0.00    +0.000 HD
ENDBRANCH   4  20
TORSDOF 2
