REMARK  Name = /srv/my_project/app/compsite/backup/Dave/CORINA_stuff/newPDBs/SANC00414.pdb
AUTHORGENERATED BY OPEN BABEL 2.3.2
REMARK  3 active torsions:
REMARK  status: ('A' for Active; 'I' for Inactive)
REMARK    1  A    between atoms: C_7  and  C_11
REMARK    2  A    between atoms: C_11  and  C_13
REMARK    3  A    between atoms: C_15  and  C_19
REMARK                            x       y       z     vdW  Elec       q    Type
REMARK                         _______ _______ _______ _____ _____    ______ ____
ROOT
ATOM      1  C   UNL     1       0.611  -1.304   0.265  1.00  0.00    +0.000 C 
ATOM      2  N   UNL     1       0.085  -0.394  -0.519  1.00  0.00    +0.000 NA
ATOM      3  C   UNL     1      -1.020   0.207   0.302  1.00  0.00    +0.000 C 
ATOM      4  C   UNL     1      -0.822  -0.323   1.743  1.00  0.00    +0.000 C 
ATOM      5  N   UNL     1       0.071  -1.435   1.524  1.00  0.00    +0.000 N 
ATOM      6  H   UNL     1       0.645  -1.791   2.278  1.00  0.00    +0.000 HD
ENDROOT
BRANCH   3   7
ATOM      7  C   UNL     1      -2.364  -0.144  -0.273  1.00  0.00    +0.000 A 
ATOM      8  C   UNL     1      -2.695  -1.266  -1.012  1.00  0.00    +0.000 A 
ATOM      9  N   UNL     1      -4.022  -1.205  -1.332  1.00  0.00    +0.000 N 
ATOM     10  H   UNL     1      -4.519  -1.896  -1.876  1.00  0.00    +0.000 HD
ATOM     11  C   UNL     1      -4.584  -0.067  -0.804  1.00  0.00    +0.000 A 
ATOM     12  C   UNL     1      -3.569   0.623  -0.138  1.00  0.00    +0.000 A 
ATOM     13  C   UNL     1      -3.890   1.843   0.494  1.00  0.00    +0.000 A 
ATOM     14  C   UNL     1      -5.204   2.326   0.440  1.00  0.00    +0.000 A 
ATOM     15  C   UNL     1      -6.189   1.609  -0.233  1.00  0.00    +0.000 A 
ATOM     16  C   UNL     1      -5.904   0.399  -0.870  1.00  0.00    +0.000 A 
ATOM     17 BR   UNL     1      -7.956   2.287  -0.289  1.00  0.00    +0.000 Br
ENDBRANCH   3   7
BRANCH   1  18
ATOM     18  C   UNL     1       1.771  -2.159  -0.216  1.00  0.00    +0.000 C 
ATOM     19  O   UNL     1       1.512  -3.341  -0.438  1.00  0.00    +0.000 OA
BRANCH  18  26
ATOM     20  C   UNL     1       3.925   2.011   0.652  1.00  0.00    +0.000 A 
ATOM     21  C   UNL     1       5.287   1.941   0.379  1.00  0.00    +0.000 A 
ATOM     22  C   UNL     1       5.859   0.761  -0.099  1.00  0.00    +0.000 A 
ATOM     23  C   UNL     1       5.018  -0.343  -0.291  1.00  0.00    +0.000 A 
ATOM     24  C   UNL     1       3.645  -0.314  -0.025  1.00  0.00    +0.000 A 
ATOM     25  C   UNL     1       3.099   0.897   0.456  1.00  0.00    +0.000 A 
ATOM     26  C   UNL     1       3.125  -1.619  -0.329  1.00  0.00    +0.000 A 
ATOM     27  C   UNL     1       4.199  -2.376  -0.771  1.00  0.00    +0.000 A 
ATOM     28  N   UNL     1       5.322  -1.601  -0.750  1.00  0.00    +0.000 N 
ATOM     29  H   UNL     1       6.246  -1.904  -1.029  1.00  0.00    +0.000 HD
ENDBRANCH  18  26
ENDBRANCH   1  18
TORSDOF 3
