REMARK  Name = /srv/my_project/app/compsite/backup/Dave/CORINA_stuff/newPDBs/SANC00577.pdb
AUTHORGENERATED BY OPEN BABEL 2.3.2
REMARK  8 active torsions:
REMARK  status: ('A' for Active; 'I' for Inactive)
REMARK    1  A    between atoms: C_1  and  C_2
REMARK    2  A    between atoms: C_5  and  C_6
REMARK    3  A    between atoms: C_6  and  C_7
REMARK    4  A    between atoms: C_6  and  C_8
REMARK    5  A    between atoms: C_11  and  O_13
REMARK    6  A    between atoms: C_14  and  C_16
REMARK    7  A    between atoms: C_21  and  C_23
REMARK    8  A    between atoms: C_23  and  O_24
REMARK                            x       y       z     vdW  Elec       q    Type
REMARK                         _______ _______ _______ _____ _____    ______ ____
ROOT
ATOM      1  C   UNL     1       0.249  -1.652   2.477  1.00  0.00    +0.000 C 
ATOM      2  C   UNL     1       0.296  -2.021   1.016  1.00  0.00    +0.000 C 
ATOM      3  C   UNL     1      -0.709  -1.802   0.143  1.00  0.00    +0.000 C 
ATOM      4  C   UNL     1      -2.049  -1.159   0.428  1.00  0.00    +0.000 C 
ATOM      5  C   UNL     1      -2.623  -0.382  -0.769  1.00  0.00    +0.000 C 
ATOM      6  C   UNL     1      -1.851   0.903  -1.106  1.00  0.00    +0.000 C 
ATOM      7  O   UNL     1      -1.457   1.081  -2.266  1.00  0.00    +0.000 OA
ATOM      8  C   UNL     1      -1.620   2.002  -0.044  1.00  0.00    +0.000 C 
ATOM      9  C   UNL     1      -0.237   1.919   0.645  1.00  0.00    +0.000 C 
ATOM     10  C   UNL     1      -0.114   2.982   1.749  1.00  0.00    +0.000 C 
ATOM     11  C   UNL     1       0.918   2.054  -0.369  1.00  0.00    +0.000 C 
ATOM     12  C   UNL     1       2.299   1.833   0.251  1.00  0.00    +0.000 C 
ATOM     13  C   UNL     1       3.309   1.451  -0.818  1.00  0.00    +0.000 C 
ATOM     14  O   UNL     1       3.639   2.268  -1.679  1.00  0.00    +0.000 OA
ATOM     15  C   UNL     1       3.917   0.049  -0.750  1.00  0.00    +0.000 C 
ATOM     16  C   UNL     1       2.825  -1.043  -0.797  1.00  0.00    +0.000 C 
ATOM     17  C   UNL     1       2.797  -1.880   0.488  1.00  0.00    +0.000 C 
ATOM     18  C   UNL     1       1.550  -2.767   0.584  1.00  0.00    +0.000 C 
ENDROOT
BRANCH   5  19
ATOM     19  C   UNL     1      -4.154  -0.072  -0.717  1.00  0.00    +0.000 C 
ATOM     20  C   UNL     1      -4.891  -0.866  -1.806  1.00  0.00    +0.000 C 
ATOM     21  C   UNL     1      -4.840  -0.330   0.628  1.00  0.00    +0.000 C 
ENDBRANCH   5  19
BRANCH   8  22
ATOM     22  O   UNL     1      -2.642   2.027   0.943  1.00  0.00    +0.000 OA
ATOM     23  H   UNL     1      -3.411   2.479   0.552  1.00  0.00    +0.000 HD
ENDBRANCH   8  22
BRANCH  15  24
ATOM     24  C   UNL     1       4.936  -0.138  -1.877  1.00  0.00    +0.000 C 
BRANCH  24  25
ATOM     25  O   UNL     1       5.645  -1.362  -1.698  1.00  0.00    +0.000 OA
ATOM     26  H   UNL     1       6.294  -1.221  -0.988  1.00  0.00    +0.000 HD
ENDBRANCH  24  25
ENDBRANCH  15  24
TORSDOF 4
