REMARK  Name = /srv/my_project/app/compsite/backup/Dave/CORINA_stuff/newPDBs/SANC00682.pdb
AUTHORGENERATED BY OPEN BABEL 2.3.2
REMARK  11 active torsions:
REMARK  status: ('A' for Active; 'I' for Inactive)
REMARK    1  A    between atoms: C_1  and  O_2
REMARK    2  A    between atoms: O_2  and  C_3
REMARK    3  A    between atoms: C_6  and  C_7
REMARK    4  A    between atoms: C_8  and  C_9
REMARK    5  A    between atoms: C_11  and  O_12
REMARK    6  A    between atoms: C_13  and  O_14
REMARK    7  A    between atoms: O_14  and  C_15
REMARK    8  A    between atoms: C_16  and  O_17
REMARK    9  A    between atoms: O_17  and  C_18
REMARK   10  A    between atoms: C_21  and  O_22
REMARK   11  A    between atoms: O_22  and  C_23
REMARK                            x       y       z     vdW  Elec       q    Type
REMARK                         _______ _______ _______ _____ _____    ______ ____
ROOT
ATOM      1  C   UNL     1      -0.583   0.119  -2.987  1.00  0.00    +0.000 C 
ATOM      2  C   UNL     1       0.606  -0.508  -2.941  1.00  0.00    +0.000 C 
ENDROOT
BRANCH   1   6
ATOM      3  C   UNL     1      -2.879   1.534   0.341  1.00  0.00    +0.000 A 
ATOM      4  C   UNL     1      -2.578   2.376  -0.734  1.00  0.00    +0.000 A 
ATOM      5  C   UNL     1      -1.835   1.901  -1.819  1.00  0.00    +0.000 A 
ATOM      6  C   UNL     1      -1.383   0.581  -1.843  1.00  0.00    +0.000 A 
ATOM      7  C   UNL     1      -1.712  -0.274  -0.782  1.00  0.00    +0.000 A 
ATOM      8  C   UNL     1      -2.435   0.197   0.320  1.00  0.00    +0.000 A 
BRANCH   3  10
ATOM      9  C   UNL     1      -4.139   3.226   1.462  1.00  0.00    +0.000 C 
ATOM     10  O   UNL     1      -3.581   1.920   1.456  1.00  0.00    +0.000 OA
ENDBRANCH   3  10
BRANCH   8  11
ATOM     11  O   UNL     1      -2.760  -0.567   1.414  1.00  0.00    +0.000 OA
ATOM     12  C   UNL     1      -2.193  -1.868   1.496  1.00  0.00    +0.000 C 
ENDBRANCH   8  11
ENDBRANCH   1   6
BRANCH   2  13
ATOM     13  C   UNL     1       1.380  -0.851  -1.739  1.00  0.00    +0.000 A 
ATOM     14  C   UNL     1       1.864  -2.151  -1.587  1.00  0.00    +0.000 A 
ATOM     15  C   UNL     1       2.589  -2.483  -0.447  1.00  0.00    +0.000 A 
ATOM     16  C   UNL     1       2.858  -1.552   0.565  1.00  0.00    +0.000 A 
ATOM     17  C   UNL     1       2.345  -0.259   0.425  1.00  0.00    +0.000 A 
ATOM     18  C   UNL     1       1.654   0.097  -0.743  1.00  0.00    +0.000 A 
BRANCH  15  19
ATOM     19  O   UNL     1       3.044  -3.772  -0.332  1.00  0.00    +0.000 OA
ATOM     20  H   UNL     1       3.511  -3.796   0.526  1.00  0.00    +0.000 HD
ENDBRANCH  15  19
BRANCH  16  21
ATOM     21  O   UNL     1       3.579  -2.066   1.614  1.00  0.00    +0.000 OA
ATOM     22  C   UNL     1       4.308  -1.136   2.407  1.00  0.00    +0.000 C 
ENDBRANCH  16  21
BRANCH  17  23
ATOM     23  O   UNL     1       2.526   0.682   1.406  1.00  0.00    +0.000 OA
ATOM     24  C   UNL     1       1.278   1.139   1.936  1.00  0.00    +0.000 C 
ENDBRANCH  17  23
ENDBRANCH   2  13
TORSDOF 7
