REMARK  Name = 
REMARK  14 active torsions:
REMARK  status: ('A' for Active; 'I' for Inactive)
REMARK    1  A    between atoms: C_1  and  C_2
REMARK    2  A    between atoms: C_2  and  C_3
REMARK    3  A    between atoms: C_3  and  C_4
REMARK    4  A    between atoms: C_4  and  C_5
REMARK    5  A    between atoms: C_5  and  C_6
REMARK    6  A    between atoms: C_6  and  C_7
REMARK    7  A    between atoms: C_7  and  C_8
REMARK    8  A    between atoms: C_9  and  O_10
REMARK    9  A    between atoms: C_12  and  C_13
REMARK   10  A    between atoms: C_13  and  C_14
REMARK   11  A    between atoms: C_15  and  C_16
REMARK   12  A    between atoms: C_15  and  C_17
REMARK   13  A    between atoms: C_18  and  O_19
REMARK   14  A    between atoms: C_20  and  C_21
REMARK                            x       y       z     vdW  Elec       q    Type
REMARK                         _______ _______ _______ _____ _____    ______ ____
ROOT
ATOM      1  C   UNL     1       0.236   1.714   0.492  1.00  0.00    +0.000 A 
ATOM      2  C   UNL     1       1.028   1.112   1.484  1.00  0.00    +0.000 A 
ATOM      3  C   UNL     1       2.394   0.899   1.306  1.00  0.00    +0.000 A 
ATOM      4  C   UNL     1       3.029   1.263   0.113  1.00  0.00    +0.000 A 
ATOM      5  C   UNL     1       2.253   1.828  -0.905  1.00  0.00    +0.000 A 
ATOM      6  C   UNL     1       0.869   2.051  -0.729  1.00  0.00    +0.000 A 
ENDROOT
BRANCH   2   7
ATOM      7  O   UNL     1       0.530   0.693   2.687  1.00  0.00    +0.000 OA
ATOM      8  H   UNL     1      -0.425   0.544   2.618  1.00  0.00    +0.000 HD
ENDBRANCH   2   7
BRANCH   5   9
ATOM      9  O   UNL     1       2.902   2.145  -2.074  1.00  0.00    +0.000 OA
ATOM     10  H   UNL     1       2.256   2.555  -2.692  1.00  0.00    +0.000 HD
ENDBRANCH   5   9
BRANCH   6  11
ATOM     11  C   UNL     1       0.095   2.633  -1.856  1.00  0.00    +0.000 C 
ATOM     12  O   UNL     1       0.648   2.994  -2.892  1.00  0.00    +0.000 OA
ENDBRANCH   6  11
BRANCH   1  13
ATOM     13  C   UNL     1      -1.232   1.985   0.746  1.00  0.00    +0.000 C 
BRANCH  13  14
ATOM     14  C   UNL     1      -2.117   0.825   0.279  1.00  0.00    +0.000 C 
BRANCH  14  15
ATOM     15  C   UNL     1      -3.595   1.119   0.547  1.00  0.00    +0.000 C 
BRANCH  15  16
ATOM     16  C   UNL     1      -4.541   0.046  -0.004  1.00  0.00    +0.000 C 
BRANCH  16  17
ATOM     17  C   UNL     1      -4.414  -1.301   0.711  1.00  0.00    +0.000 C 
BRANCH  17  19
ATOM     18  C   UNL     1      -6.834  -2.068   0.431  1.00  0.00    +0.000 C 
ATOM     19  C   UNL     1      -5.367  -2.368   0.166  1.00  0.00    +0.000 C 
ENDBRANCH  17  19
ENDBRANCH  16  17
ENDBRANCH  15  16
ENDBRANCH  14  15
ENDBRANCH  13  14
ENDBRANCH   1  13
BRANCH   4  20
ATOM     20  C   UNL     1       4.507   0.994  -0.053  1.00  0.00    +0.000 C 
BRANCH  20  21
ATOM     21  C   UNL     1       4.775  -0.375  -0.620  1.00  0.00    +0.000 C 
ATOM     22  C   UNL     1       5.305  -1.450  -0.003  1.00  0.00    +0.000 C 
ATOM     23  C   UNL     1       5.720  -1.505   1.441  1.00  0.00    +0.000 C 
ATOM     24  C   UNL     1       5.518  -2.736  -0.758  1.00  0.00    +0.000 C 
ENDBRANCH  20  21
ENDBRANCH   4  20
TORSDOF 11
