REMARK  Name = /srv/my_project/app/compsite/backup/Dave/CORINA_stuff/newPDBs/SANC00515.pdb
AUTHORGENERATED BY OPEN BABEL 2.3.2
REMARK  6 active torsions:
REMARK  status: ('A' for Active; 'I' for Inactive)
REMARK    1  A    between atoms: C_5  and  O_7
REMARK    2  A    between atoms: O_7  and  C_8
REMARK    3  A    between atoms: C_8  and  C_9
REMARK    4  A    between atoms: C_11  and  O_13
REMARK    5  A    between atoms: C_20  and  O_21
REMARK    6  A    between atoms: O_21  and  C_22
REMARK                            x       y       z     vdW  Elec       q    Type
REMARK                         _______ _______ _______ _____ _____    ______ ____
ROOT
ATOM      1  C   UNL     1       0.499  -1.239  -0.947  1.00  0.00    +0.000 C 
ATOM      2  C   UNL     1       1.880  -1.748  -1.376  1.00  0.00    +0.000 C 
ATOM      3  C   UNL     1       2.658  -0.638  -2.073  1.00  0.00    +0.000 C 
ATOM      4  C   UNL     1       2.853   0.558  -1.144  1.00  0.00    +0.000 C 
ATOM      5  C   UNL     1       1.503   1.093  -0.608  1.00  0.00    +0.000 C 
ATOM      6  C   UNL     1       0.516   0.025  -0.058  1.00  0.00    +0.000 C 
ATOM      7  C   UNL     1       0.879  -0.557   1.321  1.00  0.00    +0.000 C 
ATOM      8  C   UNL     1       0.353  -1.996   1.279  1.00  0.00    +0.000 C 
ATOM      9  N   UNL     1      -0.183  -2.229  -0.082  1.00  0.00    +0.000 NA
ATOM     10  C   UNL     1      -1.638  -1.933  -0.112  1.00  0.00    +0.000 C 
ATOM     11  C   UNL     1      -1.995  -0.461   0.053  1.00  0.00    +0.000 A 
ATOM     12  C   UNL     1      -3.354  -0.086   0.168  1.00  0.00    +0.000 A 
ATOM     13  C   UNL     1      -3.634   1.263   0.304  1.00  0.00    +0.000 A 
ATOM     14  O   UNL     1      -4.856   1.853   0.435  1.00  0.00    +0.000 OA
ATOM     15  C   UNL     1      -4.503   3.244   0.543  1.00  0.00    +0.000 C 
ATOM     16  O   UNL     1      -3.087   3.476   0.473  1.00  0.00    +0.000 OA
ATOM     17  C   UNL     1      -2.625   2.203   0.325  1.00  0.00    +0.000 A 
ATOM     18  C   UNL     1      -1.290   1.871   0.208  1.00  0.00    +0.000 A 
ATOM     19  C   UNL     1      -0.952   0.521   0.054  1.00  0.00    +0.000 A 
ENDROOT
BRANCH   5  20
ATOM     20  O   UNL     1       1.787   2.094   0.384  1.00  0.00    +0.000 OA
ATOM     21  H   UNL     1       2.448   1.711   0.989  1.00  0.00    +0.000 HD
ENDBRANCH   5  20
BRANCH  12  22
ATOM     22  O   UNL     1      -4.253  -1.116   0.128  1.00  0.00    +0.000 OA
ATOM     23  C   UNL     1      -5.633  -0.799   0.236  1.00  0.00    +0.000 C 
ENDBRANCH  12  22
BRANCH   4  24
ATOM     24  O   UNL     1       3.678   0.184  -0.014  1.00  0.00    +0.000 OA
BRANCH  24  25
ATOM     25  C   UNL     1       5.022   0.164  -0.233  1.00  0.00    +0.000 C 
ATOM     26  C   UNL     1       5.735  -0.250   1.018  1.00  0.00    +0.000 C 
ATOM     27  O   UNL     1       5.576   0.439  -1.287  1.00  0.00    +0.000 OA
ENDBRANCH  24  25
ENDBRANCH   4  24
TORSDOF 4
