REMARK  Name = /srv/my_project/app/compsite/backup/Dave/CORINA_stuff/newPDBs/SANC00317.pdb
AUTHORGENERATED BY OPEN BABEL 2.3.2
REMARK  6 active torsions:
REMARK  status: ('A' for Active; 'I' for Inactive)
REMARK    1  A    between atoms: C_3  and  O_4
REMARK    2  A    between atoms: C_5  and  C_6
REMARK    3  A    between atoms: C_9  and  O_10
REMARK    4  A    between atoms: C_11  and  O_12
REMARK    5  A    between atoms: C_17  and  O_18
REMARK    6  A    between atoms: C_20  and  O_21
REMARK                            x       y       z     vdW  Elec       q    Type
REMARK                         _______ _______ _______ _____ _____    ______ ____
ROOT
ATOM      1  O   UNL     1       2.254  -2.760   1.095  1.00  0.00    +0.000 OA
ATOM      2  C   UNL     1       1.707  -1.734   0.700  1.00  0.00    +0.000 A 
ATOM      3  C   UNL     1       0.233  -1.666   0.579  1.00  0.00    +0.000 A 
ATOM      4  C   UNL     1      -0.325  -0.519   0.149  1.00  0.00    +0.000 A 
ATOM      5  O   UNL     1       0.398   0.621  -0.180  1.00  0.00    +0.000 OA
ATOM      6  C   UNL     1       1.767   0.585  -0.096  1.00  0.00    +0.000 A 
ATOM      7  C   UNL     1       2.453   1.745  -0.460  1.00  0.00    +0.000 A 
ATOM      8  C   UNL     1       3.844   1.763  -0.389  1.00  0.00    +0.000 A 
ATOM      9  C   UNL     1       4.555   0.645   0.040  1.00  0.00    +0.000 A 
ATOM     10  C   UNL     1       3.866  -0.509   0.401  1.00  0.00    +0.000 A 
ATOM     11  C   UNL     1       2.470  -0.539   0.332  1.00  0.00    +0.000 A 
ENDROOT
BRANCH   4  12
ATOM     12  C   UNL     1      -1.784  -0.338   0.001  1.00  0.00    +0.000 A 
ATOM     13  C   UNL     1      -2.566  -1.258  -0.721  1.00  0.00    +0.000 A 
ATOM     14  C   UNL     1      -3.940  -1.062  -0.880  1.00  0.00    +0.000 A 
ATOM     15  C   UNL     1      -4.532   0.058  -0.319  1.00  0.00    +0.000 A 
ATOM     16  C   UNL     1      -3.774   0.981   0.395  1.00  0.00    +0.000 A 
ATOM     17  C   UNL     1      -2.404   0.795   0.556  1.00  0.00    +0.000 A 
BRANCH  15  18
ATOM     18  O   UNL     1      -5.875   0.251  -0.474  1.00  0.00    +0.000 OA
ATOM     19  H   UNL     1      -6.059   1.085   0.002  1.00  0.00    +0.000 HD
ENDBRANCH  15  18
BRANCH  16  20
ATOM     20  O   UNL     1      -4.424   2.064   0.921  1.00  0.00    +0.000 OA
ATOM     21  H   UNL     1      -3.776   2.600   1.410  1.00  0.00    +0.000 HD
ENDBRANCH  16  20
ENDBRANCH   4  12
BRANCH   3  22
ATOM     22  O   UNL     1      -0.483  -2.793   0.935  1.00  0.00    +0.000 OA
ATOM     23  H   UNL     1       0.187  -3.449   1.222  1.00  0.00    +0.000 HD
ENDBRANCH   3  22
BRANCH   8  24
ATOM     24  O   UNL     1       4.557   2.872  -0.736  1.00  0.00    +0.000 OA
ATOM     25  H   UNL     1       3.948   3.567  -1.038  1.00  0.00    +0.000 HD
ENDBRANCH   8  24
BRANCH  10  26
ATOM     26  O   UNL     1       4.617  -1.576   0.814  1.00  0.00    +0.000 OA
ATOM     27  H   UNL     1       4.012  -2.318   1.037  1.00  0.00    +0.000 HD
ENDBRANCH  10  26
TORSDOF 6
