REMARK  Name = /srv/my_project/app/compsite/backup/Dave/CORINA_stuff/newPDBs/SANC00161.pdb
AUTHORGENERATED BY OPEN BABEL 2.3.2
REMARK  19 active torsions:
REMARK  status: ('A' for Active; 'I' for Inactive)
REMARK    1  A    between atoms: C_1  and  O_2
REMARK    2  A    between atoms: O_2  and  C_3
REMARK    3  A    between atoms: C_3  and  C_5
REMARK    4  A    between atoms: C_5  and  C_6
REMARK    5  A    between atoms: C_8  and  O_9
REMARK    6  A    between atoms: C_10  and  C_11
REMARK    7  A    between atoms: C_11  and  C_12
REMARK    8  A    between atoms: C_13  and  C_14
REMARK    9  A    between atoms: C_13  and  C_15
REMARK   10  A    between atoms: C_15  and  C_16
REMARK   11  A    between atoms: C_16  and  C_17
REMARK   12  A    between atoms: C_18  and  C_19
REMARK   13  A    between atoms: C_18  and  C_20
REMARK   14  A    between atoms: C_20  and  C_21
REMARK   15  A    between atoms: C_21  and  C_23
REMARK   16  A    between atoms: C_23  and  C_24
REMARK   17  A    between atoms: C_24  and  C_25
REMARK   18  A    between atoms: C_24  and  C_26
REMARK   19  A    between atoms: C_28  and  O_29
REMARK                            x       y       z     vdW  Elec       q    Type
REMARK                         _______ _______ _______ _____ _____    ______ ____
ROOT
ATOM      1  C   UNL     1       2.907  -2.284   0.261  1.00  0.00    +0.000 C 
ENDROOT
BRANCH   1   5
ATOM      2  C   UNL     1       5.832   0.921   0.177  1.00  0.00    +0.000 A 
ATOM      3  C   UNL     1       5.604   0.205   1.361  1.00  0.00    +0.000 A 
ATOM      4  C   UNL     1       4.666  -0.830   1.388  1.00  0.00    +0.000 A 
ATOM      5  C   UNL     1       3.941  -1.182   0.244  1.00  0.00    +0.000 A 
ATOM      6  C   UNL     1       4.176  -0.466  -0.942  1.00  0.00    +0.000 A 
ATOM      7  C   UNL     1       5.113   0.567  -0.968  1.00  0.00    +0.000 A 
BRANCH   4   8
ATOM      8  O   UNL     1       4.453  -1.522   2.547  1.00  0.00    +0.000 OA
ATOM      9  H   UNL     1       5.036  -1.165   3.236  1.00  0.00    +0.000 HD
ENDBRANCH   4   8
BRANCH   7  10
ATOM     10  O   UNL     1       5.346   1.260  -2.122  1.00  0.00    +0.000 OA
ATOM     11  H   UNL     1       4.821   0.858  -2.835  1.00  0.00    +0.000 HD
ENDBRANCH   7  10
BRANCH   2  12
ATOM     12  C   UNL     1       6.852   2.033   0.137  1.00  0.00    +0.000 C 
BRANCH  12  13
ATOM     13  C   UNL     1       8.145   1.641  -0.543  1.00  0.00    +0.000 C 
ATOM     14  O   UNL     1       8.588   0.505  -0.648  1.00  0.00    +0.000 OA
BRANCH  13  16
ATOM     15  C   UNL     1      10.042   2.506  -1.614  1.00  0.00    +0.000 C 
ATOM     16  O   UNL     1       8.796   2.767  -0.967  1.00  0.00    +0.000 OA
ENDBRANCH  13  16
ENDBRANCH  12  13
ENDBRANCH   2  12
ENDBRANCH   1   5
BRANCH   1  17
ATOM     17  C   UNL     1       1.504  -1.752   0.424  1.00  0.00    +0.000 C 
ATOM     18  C   UNL     1       0.670  -1.893   1.476  1.00  0.00    +0.000 C 
ATOM     19  C   UNL     1       1.036  -2.624   2.745  1.00  0.00    +0.000 C 
BRANCH  18  20
ATOM     20  C   UNL     1      -0.741  -1.316   1.523  1.00  0.00    +0.000 C 
BRANCH  20  21
ATOM     21  C   UNL     1      -1.247  -0.560   0.287  1.00  0.00    +0.000 C 
BRANCH  21  22
ATOM     22  C   UNL     1      -2.641  -0.029   0.499  1.00  0.00    +0.000 C 
ATOM     23  C   UNL     1      -3.796  -0.522   0.007  1.00  0.00    +0.000 C 
ATOM     24  C   UNL     1      -3.901  -1.779  -0.815  1.00  0.00    +0.000 C 
BRANCH  23  25
ATOM     25  C   UNL     1      -5.109   0.172   0.299  1.00  0.00    +0.000 C 
BRANCH  25  26
ATOM     26  C   UNL     1      -5.634   0.894  -0.935  1.00  0.00    +0.000 C 
ATOM     27  O   UNL     1      -5.142   1.956  -1.322  1.00  0.00    +0.000 OA
BRANCH  26  28
ATOM     28  C   UNL     1      -6.787   0.250  -1.685  1.00  0.00    +0.000 C 
BRANCH  28  29
ATOM     29  C   UNL     1      -8.167   0.828  -1.342  1.00  0.00    +0.000 C 
ATOM     30  C   UNL     1      -8.291   2.304  -1.720  1.00  0.00    +0.000 C 
ATOM     31  C   UNL     1      -8.541   0.617   0.125  1.00  0.00    +0.000 C 
ENDBRANCH  28  29
ENDBRANCH  26  28
ENDBRANCH  25  26
ENDBRANCH  23  25
ENDBRANCH  21  22
ENDBRANCH  20  21
ENDBRANCH  18  20
ENDBRANCH   1  17
TORSDOF 14
