REMARK  Name = SANCDB_00762_minRM1.pdb
AUTHORGENERATED BY OPEN BABEL 2.3.2
REMARK  7 active torsions:
REMARK  status: ('A' for Active; 'I' for Inactive)
REMARK    1  A    between atoms: C_12  and  C_13
REMARK    2  A    between atoms: C_12  and  O_14
REMARK    3  A    between atoms: C_15  and  C_16
REMARK    4  A    between atoms: C_15  and  O_17
REMARK    5  A    between atoms: C_18  and  C_19
REMARK    6  A    between atoms: C_19  and  C_20
REMARK    7  A    between atoms: C_19  and  C_21
REMARK                            x       y       z     vdW  Elec       q    Type
REMARK                         _______ _______ _______ _____ _____    ______ ____
ROOT
ATOM      1  C   UNL     1       1.927  -1.134   0.466  1.00  0.00    +0.000 C 
ATOM      2  C   UNL     1       2.772  -1.247   1.717  1.00  0.00    +0.000 C 
ATOM      3  C   UNL     1       4.188  -0.988   1.195  1.00  0.00    +0.000 C 
ATOM      4  N   UNL     1       4.071  -0.349  -0.144  1.00  0.00    +0.000 NA
ATOM      5  C   UNL     1       4.790   0.942  -0.206  1.00  0.00    +0.000 C 
ATOM      6  C   UNL     1       3.790   1.951   0.237  1.00  0.00    +0.000 C 
ATOM      7  C   UNL     1       2.560   1.417   0.246  1.00  0.00    +0.000 C 
ATOM      8  C   UNL     1       1.342   2.067   0.798  1.00  0.00    +0.000 C 
ATOM      9  O   UNL     1       0.205   1.847  -0.040  1.00  0.00    +0.000 OA
ATOM     10  C   UNL     1      -0.959   2.080   0.619  1.00  0.00    +0.000 C 
ATOM     11  O   UNL     1      -1.042   2.526   1.762  1.00  0.00    +0.000 OA
ATOM     12  C   UNL     1      -2.212   1.770  -0.205  1.00  0.00    +0.000 C 
ATOM     13  C   UNL     1      -2.533   2.997  -1.064  1.00  0.00    +0.000 C 
ATOM     14  C   UNL     1      -2.218   0.404  -0.982  1.00  0.00    +0.000 C 
ATOM     15  C   UNL     1      -1.537   0.510  -2.356  1.00  0.00    +0.000 C 
ATOM     16  C   UNL     1      -1.711  -0.795  -0.086  1.00  0.00    +0.000 C 
ATOM     17  C   UNL     1      -0.250  -1.136  -0.364  1.00  0.00    +0.000 C 
ATOM     18  O   UNL     1       0.172  -1.562  -1.430  1.00  0.00    +0.000 OA
ATOM     19  O   UNL     1       0.540  -0.904   0.730  1.00  0.00    +0.000 OA
ATOM     20  C   UNL     1       2.620   0.006  -0.290  1.00  0.00    +0.000 C 
ENDROOT
BRANCH  16  21
ATOM     21  C   UNL     1      -2.580  -2.092  -0.104  1.00  0.00    +0.000 C 
ATOM     22  C   UNL     1      -2.679  -2.798  -1.460  1.00  0.00    +0.000 C 
ATOM     23  C   UNL     1      -2.104  -3.097   0.956  1.00  0.00    +0.000 C 
ENDBRANCH  16  21
BRANCH  12  24
ATOM     24  O   UNL     1      -3.315   1.665   0.752  1.00  0.00    +0.000 OA
ATOM     25  H   UNL     1      -3.129   2.321   1.457  1.00  0.00    +0.000 HD
ENDBRANCH  12  24
BRANCH  14  26
ATOM     26  O   UNL     1      -3.618   0.162  -1.302  1.00  0.00    +0.000 OA
ATOM     27  H   UNL     1      -4.120   0.468  -0.514  1.00  0.00    +0.000 HD
ENDBRANCH  14  26
TORSDOF 3
