REMARK  Name = /srv/my_project/app/compsite/backup/Dave/CORINA_stuff/newPDBs/SANC00326.pdb
AUTHORGENERATED BY OPEN BABEL 2.3.2
REMARK  6 active torsions:
REMARK  status: ('A' for Active; 'I' for Inactive)
REMARK    1  A    between atoms: N_4  and  C_5
REMARK    2  A    between atoms: C_9  and  O_10
REMARK    3  A    between atoms: O_10  and  C_11
REMARK    4  A    between atoms: C_24  and  O_26
REMARK    5  A    between atoms: O_26  and  C_27
REMARK    6  A    between atoms: C_27  and  C_28
REMARK                            x       y       z     vdW  Elec       q    Type
REMARK                         _______ _______ _______ _____ _____    ______ ____
ROOT
ATOM      1  C   UNL     1       0.626  -0.928  -1.641  1.00  0.00    +0.000 C 
ATOM      2  C   UNL     1      -0.287  -1.832  -2.454  1.00  0.00    +0.000 C 
ATOM      3  N   UNL     1      -1.476  -1.005  -2.737  1.00  0.00    +0.000 NA
ATOM      4  C   UNL     1      -2.688  -1.811  -2.715  1.00  0.00    +0.000 C 
ATOM      5  C   UNL     1      -1.431   0.192  -1.832  1.00  0.00    +0.000 C 
ATOM      6  C   UNL     1      -2.760   0.728  -1.258  1.00  0.00    +0.000 C 
ATOM      7  C   UNL     1      -3.142   0.229   0.113  1.00  0.00    +0.000 C 
ATOM      8  C   UNL     1      -2.318  -0.539   0.847  1.00  0.00    +0.000 C 
ATOM      9  C   UNL     1      -0.952  -0.977   0.396  1.00  0.00    +0.000 C 
ATOM     10  C   UNL     1      -0.355  -0.129  -0.766  1.00  0.00    +0.000 C 
ATOM     11  C   UNL     1       0.492   0.990  -0.164  1.00  0.00    +0.000 A 
ATOM     12  C   UNL     1      -0.016   2.260   0.144  1.00  0.00    +0.000 A 
ATOM     13  C   UNL     1       0.835   3.183   0.718  1.00  0.00    +0.000 A 
ATOM     14  O   UNL     1       0.499   4.453   1.073  1.00  0.00    +0.000 OA
ATOM     15  C   UNL     1       1.750   4.921   1.618  1.00  0.00    +0.000 C 
ATOM     16  O   UNL     1       2.804   3.939   1.563  1.00  0.00    +0.000 OA
ATOM     17  C   UNL     1       2.147   2.891   1.000  1.00  0.00    +0.000 A 
ATOM     18  C   UNL     1       2.688   1.655   0.727  1.00  0.00    +0.000 A 
ATOM     19  C   UNL     1       1.858   0.680   0.140  1.00  0.00    +0.000 A 
ATOM     20  C   UNL     1       2.457  -0.693  -0.189  1.00  0.00    +0.000 C 
ATOM     21  O   UNL     1       1.563  -1.615  -0.830  1.00  0.00    +0.000 OA
ENDROOT
BRANCH   7  22
ATOM     22  O   UNL     1      -4.398   0.653   0.489  1.00  0.00    +0.000 OA
ATOM     23  C   UNL     1      -4.878   0.281   1.776  1.00  0.00    +0.000 C 
ENDBRANCH   7  22
BRANCH  20  24
ATOM     24  O   UNL     1       2.927  -1.253   1.036  1.00  0.00    +0.000 OA
BRANCH  24  25
ATOM     25  C   UNL     1       3.771  -2.380   0.822  1.00  0.00    +0.000 C 
ATOM     26  C   UNL     1       4.248  -2.879   2.172  1.00  0.00    +0.000 C 
ENDBRANCH  24  25
ENDBRANCH  20  24
TORSDOF 3
