REMARK  Name = SANCDB_01065_minRM1.pdb
AUTHORGENERATED BY OPEN BABEL 2.3.2
REMARK  2 active torsions:
REMARK  status: ('A' for Active; 'I' for Inactive)
REMARK    1  A    between atoms: C_1  and  C_2
REMARK    2  A    between atoms: C_2  and  C_10
REMARK                            x       y       z     vdW  Elec       q    Type
REMARK                         _______ _______ _______ _____ _____    ______ ____
ROOT
ATOM      1  C   UNL     1      -1.345   0.806  -1.175  1.00  0.00    +0.000 C 
ATOM      2  C   UNL     1      -1.061   0.009   0.105  1.00  0.00    +0.000 C 
ATOM      3  C   UNL     1      -0.259  -1.353  -0.053  1.00  0.00    +0.000 C 
ATOM      4  C   UNL     1       0.878  -1.332  -1.093  1.00  0.00    +0.000 C 
ATOM      5  C   UNL     1       1.926  -0.244  -0.767  1.00  0.00    +0.000 C 
ATOM      6  C   UNL     1       1.376   0.838   0.135  1.00  0.00    +0.000 C 
ATOM      7  C   UNL     1       1.831   2.097   0.174  1.00  0.00    +0.000 C 
ATOM      8  C   UNL     1       0.196   0.438   0.978  1.00  0.00    +0.000 C 
ATOM      9  C   UNL     1       0.295  -1.077   1.379  1.00  0.00    +0.000 C 
ATOM     10  C   UNL     1      -2.382  -0.102   0.890  1.00  0.00    +0.000 C 
ENDROOT
TORSDOF 0
