REMARK  Name = SANCDB_01117_minRM1.pdb
AUTHORGENERATED BY OPEN BABEL 2.3.2
REMARK  6 active torsions:
REMARK  status: ('A' for Active; 'I' for Inactive)
REMARK    1  A    between atoms: C_1  and  O_2
REMARK    2  A    between atoms: O_2  and  C_3
REMARK    3  A    between atoms: C_6  and  C_9
REMARK    4  A    between atoms: C_18  and  O_22
REMARK    5  A    between atoms: C_19  and  O_20
REMARK    6  A    between atoms: O_20  and  C_21
REMARK                            x       y       z     vdW  Elec       q    Type
REMARK                         _______ _______ _______ _____ _____    ______ ____
ROOT
ATOM      1  C   UNL     1       0.237   0.149  -0.131  1.00  0.00    +0.000 A 
ATOM      2  C   UNL     1      -0.495  -0.230  -1.189  1.00  0.00    +0.000 A 
ATOM      3  O   UNL     1      -1.857  -0.147  -1.322  1.00  0.00    +0.000 OA
ATOM      4  C   UNL     1      -2.590   0.361  -0.280  1.00  0.00    +0.000 A 
ATOM      5  C   UNL     1      -1.974   0.811   0.893  1.00  0.00    +0.000 A 
ATOM      6  C   UNL     1      -0.508   0.704   1.032  1.00  0.00    +0.000 A 
ATOM      7  O   UNL     1       0.047   1.061   2.065  1.00  0.00    +0.000 OA
ATOM      8  C   UNL     1      -2.728   1.373   1.933  1.00  0.00    +0.000 A 
ATOM      9  C   UNL     1      -4.108   1.498   1.798  1.00  0.00    +0.000 A 
ATOM     10  C   UNL     1      -4.716   1.050   0.633  1.00  0.00    +0.000 A 
ATOM     11  C   UNL     1      -3.982   0.458  -0.405  1.00  0.00    +0.000 A 
ENDROOT
BRANCH   1  15
ATOM     12  C   UNL     1       4.509  -0.350  -0.121  1.00  0.00    +0.000 A 
ATOM     13  C   UNL     1       3.869   0.257  -1.203  1.00  0.00    +0.000 A 
ATOM     14  C   UNL     1       2.481   0.426  -1.210  1.00  0.00    +0.000 A 
ATOM     15  C   UNL     1       1.703  -0.016  -0.131  1.00  0.00    +0.000 A 
ATOM     16  C   UNL     1       2.354  -0.619   0.954  1.00  0.00    +0.000 A 
ATOM     17  C   UNL     1       3.745  -0.786   0.960  1.00  0.00    +0.000 A 
BRANCH  12  19
ATOM     18  C   UNL     1       6.569  -1.015   0.859  1.00  0.00    +0.000 C 
ATOM     19  O   UNL     1       5.867  -0.452  -0.242  1.00  0.00    +0.000 OA
ENDBRANCH  12  19
ENDBRANCH   1  15
BRANCH  11  20
ATOM     20  O   UNL     1      -4.738   0.074  -1.486  1.00  0.00    +0.000 OA
ATOM     21  C   UNL     1      -4.332  -1.134  -2.124  1.00  0.00    +0.000 C 
ENDBRANCH  11  20
BRANCH  10  22
ATOM     22  O   UNL     1      -6.073   1.193   0.522  1.00  0.00    +0.000 OA
ATOM     23  H   UNL     1      -6.296   0.864  -0.371  1.00  0.00    +0.000 HD
ENDBRANCH  10  22
TORSDOF 4
