REMARK  Name = /srv/my_project/app/compsite/backup/Dave/CORINA_stuff/newPDBs/SANC00221.pdb
AUTHORGENERATED BY OPEN BABEL 2.3.2
REMARK  2 active torsions:
REMARK  status: ('A' for Active; 'I' for Inactive)
REMARK    1  A    between atoms: C_4  and  O_5
REMARK    2  A    between atoms: C_7  and  O_8
REMARK                            x       y       z     vdW  Elec       q    Type
REMARK                         _______ _______ _______ _____ _____    ______ ____
ROOT
ATOM      1  O   UNL     1      -0.220   0.406   2.060  1.00  0.00    +0.000 OA
ATOM      2  C   UNL     1      -0.702   0.054   0.980  1.00  0.00    +0.000 C 
ATOM      3  C   UNL     1      -2.176   0.030   0.860  1.00  0.00    +0.000 A 
ATOM      4  C   UNL     1      -3.005   0.386   1.932  1.00  0.00    +0.000 A 
ATOM      5  C   UNL     1      -4.391   0.308   1.811  1.00  0.00    +0.000 A 
ATOM      6  C   UNL     1      -4.943  -0.140   0.616  1.00  0.00    +0.000 A 
ATOM      7  C   UNL     1      -4.133  -0.499  -0.458  1.00  0.00    +0.000 A 
ATOM      8  C   UNL     1      -2.746  -0.398  -0.344  1.00  0.00    +0.000 A 
ATOM      9  O   UNL     1      -2.026  -0.777  -1.448  1.00  0.00    +0.000 OA
ATOM     10  C   UNL     1      -0.745  -0.141  -1.544  1.00  0.00    +0.000 C 
ATOM     11  C   UNL     1       0.070  -0.411  -0.291  1.00  0.00    +0.000 C 
ATOM     12  C   UNL     1       0.741  -1.838  -0.218  1.00  0.00    +0.000 C 
ATOM     13  C   UNL     1       2.058  -1.125  -0.322  1.00  0.00    +0.000 A 
ATOM     14  C   UNL     1       3.422  -1.316  -0.369  1.00  0.00    +0.000 A 
ATOM     15  C   UNL     1       4.172  -0.160  -0.461  1.00  0.00    +0.000 A 
ATOM     16  O   UNL     1       5.530  -0.104  -0.520  1.00  0.00    +0.000 OA
ATOM     17  C   UNL     1       5.744   1.322  -0.587  1.00  0.00    +0.000 C 
ATOM     18  O   UNL     1       4.523   2.090  -0.593  1.00  0.00    +0.000 OA
ATOM     19  C   UNL     1       3.593   1.100  -0.501  1.00  0.00    +0.000 A 
ATOM     20  C   UNL     1       2.226   1.288  -0.454  1.00  0.00    +0.000 A 
ATOM     21  C   UNL     1       1.479   0.132  -0.364  1.00  0.00    +0.000 A 
ENDROOT
BRANCH   4  22
ATOM     22  O   UNL     1      -2.523   0.814   3.141  1.00  0.00    +0.000 OA
ATOM     23  H   UNL     1      -1.539   0.792   3.101  1.00  0.00    +0.000 HD
ENDBRANCH   4  22
BRANCH   6  24
ATOM     24  O   UNL     1      -6.293  -0.243   0.454  1.00  0.00    +0.000 OA
ATOM     25  H   UNL     1      -6.730   0.031   1.277  1.00  0.00    +0.000 HD
ENDBRANCH   6  24
TORSDOF 2
