REMARK  Name = /srv/my_project/app/compsite/backup/Dave/CORINA_stuff/newPDBs/SANC00148.pdb
AUTHORGENERATED BY OPEN BABEL 2.3.2
REMARK  9 active torsions:
REMARK  status: ('A' for Active; 'I' for Inactive)
REMARK    1  A    between atoms: C_2  and  C_3
REMARK    2  A    between atoms: C_5  and  O_7
REMARK    3  A    between atoms: O_7  and  C_8
REMARK    4  A    between atoms: C_8  and  C_9
REMARK    5  A    between atoms: C_18  and  O_20
REMARK    6  A    between atoms: O_20  and  C_21
REMARK    7  A    between atoms: C_21  and  C_22
REMARK    8  A    between atoms: C_26  and  C_27
REMARK    9  A    between atoms: C_31  and  C_32
REMARK                            x       y       z     vdW  Elec       q    Type
REMARK                         _______ _______ _______ _____ _____    ______ ____
ROOT
ATOM      1  C   UNL     1      -3.445   0.931  -1.123  1.00  0.00    +0.000 C 
ATOM      2  C   UNL     1      -3.555   1.786   0.185  1.00  0.00    +0.000 C 
ATOM      3  C   UNL     1      -2.194   1.616   0.906  1.00  0.00    +0.000 C 
ATOM      4  C   UNL     1      -1.337   0.807  -0.064  1.00  0.00    +0.000 C 
ATOM      5  C   UNL     1      -0.115   0.055   0.476  1.00  0.00    +0.000 C 
ATOM      6  C   UNL     1       0.815   0.991   1.264  1.00  0.00    +0.000 C 
ATOM      7  C   UNL     1       2.113   0.309   1.690  1.00  0.00    +0.000 C 
ATOM      8  C   UNL     1       2.817  -0.306   0.479  1.00  0.00    +0.000 C 
ATOM      9  C   UNL     1       4.209  -0.855   0.834  1.00  0.00    +0.000 C 
ATOM     10  C   UNL     1       4.970  -1.277  -0.436  1.00  0.00    +0.000 C 
ATOM     11  C   UNL     1       4.078  -1.891  -1.482  1.00  0.00    +0.000 C 
ATOM     12  C   UNL     1       2.737  -1.942  -1.412  1.00  0.00    +0.000 C 
ATOM     13  C   UNL     1       1.929  -1.370  -0.253  1.00  0.00    +0.000 C 
ATOM     14  C   UNL     1       1.583  -2.579   0.651  1.00  0.00    +0.000 C 
ATOM     15  C   UNL     1       0.627  -0.622  -0.727  1.00  0.00    +0.000 C 
ATOM     16  C   UNL     1      -0.344  -1.479  -1.584  1.00  0.00    +0.000 C 
ATOM     17  C   UNL     1      -1.632  -0.736  -1.988  1.00  0.00    +0.000 C 
ATOM     18  C   UNL     1      -2.347  -0.119  -0.774  1.00  0.00    +0.000 C 
ATOM     19  C   UNL     1      -2.915  -1.251   0.120  1.00  0.00    +0.000 C 
ENDROOT
BRANCH   1  21
ATOM     20  C   UNL     1      -5.947   0.833  -1.612  1.00  0.00    +0.000 C 
ATOM     21  C   UNL     1      -4.694   0.390  -1.778  1.00  0.00    +0.000 C 
ENDBRANCH   1  21
BRANCH   2  22
ATOM     22  O   UNL     1      -4.598   1.304   1.051  1.00  0.00    +0.000 OA
BRANCH  22  23
ATOM     23  C   UNL     1      -4.994   2.160   2.030  1.00  0.00    +0.000 C 
ATOM     24  C   UNL     1      -6.082   1.532   2.845  1.00  0.00    +0.000 C 
ATOM     25  O   UNL     1      -4.538   3.277   2.228  1.00  0.00    +0.000 OA
ENDBRANCH  22  23
ENDBRANCH   2  22
BRANCH  10  26
ATOM     26  O   UNL     1       5.561  -0.124  -1.063  1.00  0.00    +0.000 OA
BRANCH  26  27
ATOM     27  C   UNL     1       6.755   0.278  -0.554  1.00  0.00    +0.000 C 
ATOM     28  C   UNL     1       7.247   1.482  -1.297  1.00  0.00    +0.000 C 
ATOM     29  O   UNL     1       7.351  -0.251   0.373  1.00  0.00    +0.000 OA
ENDBRANCH  26  27
ENDBRANCH  10  26
TORSDOF 5
