REMARK  Name = 
REMARK  12 active torsions:
REMARK  status: ('A' for Active; 'I' for Inactive)
REMARK    1  A    between atoms: C_11  and  C_12
REMARK    2  A    between atoms: C_13  and  C_15
REMARK    3  A    between atoms: C_23  and  O_24
REMARK    4  A    between atoms: C_25  and  C_26
REMARK    5  A    between atoms: C_27  and  O_29
REMARK    6  A    between atoms: C_31  and  O_33
REMARK    7  A    between atoms: O_33  and  C_34
REMARK    8  A    between atoms: C_37  and  C_39
REMARK    9  A    between atoms: C_40  and  O_42
REMARK   10  A    between atoms: C_43  and  O_45
REMARK   11  A    between atoms: O_45  and  C_46
REMARK   12  A    between atoms: C_47  and  O_49
REMARK                            x       y       z     vdW  Elec       q    Type
REMARK                         _______ _______ _______ _____ _____    ______ ____
ROOT
ATOM      1  C   UNL     1       0.525  -0.110   0.900  1.00  0.00    +0.000 C 
ATOM      2  C   UNL     1       0.277   1.389   1.190  1.00  0.00    +0.000 C 
ATOM      3  C   UNL     1      -1.122   1.897   0.867  1.00  0.00    +0.000 C 
ATOM      4  C   UNL     1      -2.170   0.799   1.028  1.00  0.00    +0.000 C 
ATOM      5  C   UNL     1      -1.920  -0.389   0.071  1.00  0.00    +0.000 C 
ATOM      6  C   UNL     1      -2.798  -1.571   0.549  1.00  0.00    +0.000 C 
ATOM      7  C   UNL     1      -4.079  -1.175   1.297  1.00  0.00    +0.000 C 
ATOM      8  C   UNL     1      -4.714   0.171   0.891  1.00  0.00    +0.000 C 
ATOM      9  C   UNL     1      -5.854   0.469   1.902  1.00  0.00    +0.000 C 
ATOM     10  C   UNL     1      -5.231   0.173  -0.592  1.00  0.00    +0.000 C 
ATOM     11  C   UNL     1      -5.224   1.670  -0.929  1.00  0.00    +0.000 C 
ATOM     12  C   UNL     1      -3.887   2.151  -0.383  1.00  0.00    +0.000 C 
ATOM     13  C   UNL     1      -3.632   1.329   0.902  1.00  0.00    +0.000 C 
ATOM     14  C   UNL     1      -0.386  -0.719  -0.209  1.00  0.00    +0.000 C 
ATOM     15  C   UNL     1      -0.162  -2.259  -0.272  1.00  0.00    +0.000 C 
ATOM     16  C   UNL     1       0.054  -0.101  -1.581  1.00  0.00    +0.000 C 
ATOM     17  C   UNL     1       1.543  -0.279  -1.891  1.00  0.00    +0.000 C 
ATOM     18  C   UNL     1       2.461   0.210  -0.769  1.00  0.00    +0.000 C 
ATOM     19  C   UNL     1       2.025  -0.326   0.604  1.00  0.00    +0.000 C 
ENDROOT
BRANCH  10  20
ATOM     20  C   UNL     1      -6.508  -0.523  -0.989  1.00  0.00    +0.000 C 
ATOM     21  C   UNL     1      -7.192  -1.488  -0.374  1.00  0.00    +0.000 C 
ATOM     22  C   UNL     1      -8.319  -1.851  -1.231  1.00  0.00    +0.000 C 
ATOM     23  O   UNL     1      -9.152  -2.696  -0.962  1.00  0.00    +0.000 OA
ATOM     24  O   UNL     1      -8.276  -1.102  -2.362  1.00  0.00    +0.000 OA
ATOM     25  C   UNL     1      -7.153  -0.227  -2.297  1.00  0.00    +0.000 C 
ENDBRANCH  10  20
BRANCH  13  26
ATOM     26  O   UNL     1      -3.816   2.204   2.024  1.00  0.00    +0.000 OA
ATOM     27  H   UNL     1      -4.616   2.737   1.881  1.00  0.00    +0.000 HD
ENDBRANCH  13  26
BRANCH  16  28
ATOM     28  O   UNL     1      -0.712  -0.652  -2.657  1.00  0.00    +0.000 OA
ATOM     29  H   UNL     1      -0.376  -1.546  -2.843  1.00  0.00    +0.000 HD
ENDBRANCH  16  28
BRANCH  18  30
ATOM     30  O   UNL     1       3.783  -0.216  -1.119  1.00  0.00    +0.000 OA
BRANCH  30  31
ATOM     31  C   UNL     1       4.825   0.377  -0.333  1.00  0.00    +0.000 C 
ATOM     32  O   UNL     1       5.038  -0.369   0.868  1.00  0.00    +0.000 OA
ATOM     33  C   UNL     1       5.968  -1.453   0.793  1.00  0.00    +0.000 C 
ATOM     34  C   UNL     1       5.381  -2.620  -0.000  1.00  0.00    +0.000 C 
ATOM     35  C   UNL     1       7.359  -1.020   0.266  1.00  0.00    +0.000 C 
ATOM     36  C   UNL     1       7.346   0.388  -0.361  1.00  0.00    +0.000 C 
ATOM     37  C   UNL     1       6.085   0.490  -1.223  1.00  0.00    +0.000 C 
BRANCH  35  38
ATOM     38  O   UNL     1       8.316  -1.034   1.337  1.00  0.00    +0.000 OA
ATOM     39  H   UNL     1       8.174  -0.185   1.807  1.00  0.00    +0.000 HD
ENDBRANCH  35  38
BRANCH  36  40
ATOM     40  O   UNL     1       7.408   1.339   0.725  1.00  0.00    +0.000 OA
ATOM     41  C   UNL     1       7.586   2.687   0.312  1.00  0.00    +0.000 C 
ENDBRANCH  36  40
BRANCH  37  42
ATOM     42  O   UNL     1       6.061   1.694  -2.007  1.00  0.00    +0.000 OA
ATOM     43  H   UNL     1       6.748   1.611  -2.691  1.00  0.00    +0.000 HD
ENDBRANCH  37  42
ENDBRANCH  30  31
ENDBRANCH  18  30
TORSDOF 8
