REMARK  Name = /srv/my_project/app/compsite/backup/Dave/CORINA_stuff/newPDBs/SANC00507.pdb
AUTHORGENERATED BY OPEN BABEL 2.3.2
REMARK  47 active torsions:
REMARK  status: ('A' for Active; 'I' for Inactive)
REMARK    1  A    between atoms: C_2  and  O_3
REMARK    2  A    between atoms: O_3  and  C_4
REMARK    3  A    between atoms: C_6  and  O_8
REMARK    4  A    between atoms: C_11  and  O_13
REMARK    5  A    between atoms: O_13  and  C_14
REMARK    6  A    between atoms: C_25  and  O_27
REMARK    7  A    between atoms: O_27  and  C_28
REMARK    8  A    between atoms: C_31  and  C_33
REMARK    9  A    between atoms: C_33  and  O_34
REMARK   10  A    between atoms: O_34  and  C_35
REMARK   11  A    between atoms: C_38  and  C_40
REMARK   12  A    between atoms: C_40  and  O_41
REMARK   13  A    between atoms: C_42  and  O_44
REMARK   14  A    between atoms: O_44  and  C_45
REMARK   15  A    between atoms: C_48  and  C_50
REMARK   16  A    between atoms: C_50  and  O_51
REMARK   17  A    between atoms: C_52  and  O_54
REMARK   18  A    between atoms: C_55  and  O_57
REMARK   19  A    between atoms: C_58  and  O_60
REMARK   20  A    between atoms: C_61  and  O_63
REMARK   21  A    between atoms: C_64  and  O_66
REMARK   22  A    between atoms: C_67  and  O_69
REMARK   23  A    between atoms: C_70  and  O_72
REMARK   24  A    between atoms: C_73  and  O_75
REMARK   25  A    between atoms: C_78  and  C_79
REMARK   26  A    between atoms: C_84  and  C_85
REMARK   27  A    between atoms: C_86  and  O_87
REMARK   28  A    between atoms: C_86  and  C_88
REMARK   29  A    between atoms: C_88  and  C_90
REMARK   30  A    between atoms: C_88  and  C_91
REMARK   31  A    between atoms: C_91  and  C_93
REMARK   32  A    between atoms: C_93  and  C_94
REMARK   33  A    between atoms: C_94  and  C_95
REMARK   34  A    between atoms: C_95  and  C_96
REMARK   35  A    between atoms: C_95  and  C_97
REMARK   36  A    between atoms: C_98  and  O_100
REMARK   37  A    between atoms: O_100  and  C_101
REMARK   38  A    between atoms: C_101  and  C_102
REMARK   39  A    between atoms: C_106  and  O_108
REMARK   40  A    between atoms: C_109  and  O_111
REMARK   41  A    between atoms: O_111  and  C_112
REMARK   42  A    between atoms: C_112  and  C_114
REMARK   43  A    between atoms: C_117  and  O_118
REMARK   44  A    between atoms: O_118  and  C_119
REMARK   45  A    between atoms: C_120  and  O_121
REMARK   46  A    between atoms: O_121  and  C_122
REMARK   47  A    between atoms: C_124  and  O_126
REMARK                            x       y       z     vdW  Elec       q    Type
REMARK                         _______ _______ _______ _____ _____    ______ ____
ROOT
ATOM      1  C   UNL     1      -2.242   0.095   2.053  1.00  0.00    +0.000 C 
ATOM      2  C   UNL     1      -2.018  -1.090   1.091  1.00  0.00    +0.000 C 
ATOM      3  C   UNL     1      -2.620  -0.611  -0.223  1.00  0.00    +0.000 C 
ATOM      4  C   UNL     1      -2.819  -1.646  -1.339  1.00  0.00    +0.000 C 
ATOM      5  C   UNL     1      -1.482  -2.314  -1.695  1.00  0.00    +0.000 C 
ATOM      6  C   UNL     1      -1.491  -3.018  -3.014  1.00  0.00    +0.000 C 
ATOM      7  C   UNL     1      -2.449  -2.886  -3.949  1.00  0.00    +0.000 C 
ATOM      8  C   UNL     1      -2.353  -3.667  -5.246  1.00  0.00    +0.000 C 
ATOM      9  C   UNL     1      -2.502  -2.762  -6.475  1.00  0.00    +0.000 C 
ATOM     10  C   UNL     1      -3.800  -1.959  -6.374  1.00  0.00    +0.000 C 
ATOM     11  C   UNL     1      -3.854  -1.134  -5.087  1.00  0.00    +0.000 C 
ATOM     12  C   UNL     1      -3.659  -1.958  -3.779  1.00  0.00    +0.000 C 
ATOM     13  C   UNL     1      -4.905  -2.841  -3.537  1.00  0.00    +0.000 C 
ATOM     14  C   UNL     1      -3.429  -0.946  -2.587  1.00  0.00    +0.000 C 
ATOM     15  C   UNL     1      -4.674  -0.097  -2.224  1.00  0.00    +0.000 C 
ATOM     16  C   UNL     1      -4.451   0.852  -1.032  1.00  0.00    +0.000 C 
ATOM     17  C   UNL     1      -3.918   0.120   0.219  1.00  0.00    +0.000 C 
ATOM     18  C   UNL     1      -4.998  -0.871   0.713  1.00  0.00    +0.000 C 
ATOM     19  C   UNL     1      -3.345   1.021   1.385  1.00  0.00    +0.000 C 
ENDROOT
BRANCH  19  20
ATOM     20  C   UNL     1      -4.272   1.731   2.430  1.00  0.00    +0.000 C 
ATOM     21  C   UNL     1      -5.275   0.875   3.209  1.00  0.00    +0.000 C 
BRANCH  20  22
ATOM     22  C   UNL     1      -4.983   2.976   1.871  1.00  0.00    +0.000 C 
ATOM     23  O   UNL     1      -4.829   3.338   0.701  1.00  0.00    +0.000 OA
BRANCH  22  24
ATOM     24  C   UNL     1      -5.848   3.813   2.807  1.00  0.00    +0.000 C 
BRANCH  24  25
ATOM     25  C   UNL     1      -5.032   4.503   3.902  1.00  0.00    +0.000 C 
BRANCH  25  26
ATOM     26  C   UNL     1      -5.910   5.165   4.978  1.00  0.00    +0.000 C 
ATOM     27  C   UNL     1      -5.038   5.663   6.135  1.00  0.00    +0.000 C 
ATOM     28  C   UNL     1      -6.749   6.318   4.429  1.00  0.00    +0.000 C 
ENDBRANCH  25  26
ENDBRANCH  24  25
ENDBRANCH  22  24
ENDBRANCH  20  22
ENDBRANCH  19  20
BRANCH  19  29
ATOM     29  O   UNL     1      -2.535   2.075   0.779  1.00  0.00    +0.000 OA
ATOM     30  H   UNL     1      -3.158   2.714   0.370  1.00  0.00    +0.000 HD
ENDBRANCH  19  29
BRANCH   9  31
ATOM     31  O   UNL     1      -2.554  -3.481  -7.716  1.00  0.00    +0.000 OA
BRANCH  31  32
ATOM     32  C   UNL     1      -1.410  -4.314  -7.966  1.00  0.00    +0.000 C 
ATOM     33  O   UNL     1      -0.189  -3.658  -7.663  1.00  0.00    +0.000 OA
ATOM     34  C   UNL     1       0.939  -4.548  -7.702  1.00  0.00    +0.000 C 
ATOM     35  C   UNL     1       0.790  -5.723  -8.704  1.00  0.00    +0.000 C 
ATOM     36  C   UNL     1      -0.127  -5.386  -9.893  1.00  0.00    +0.000 C 
ATOM     37  C   UNL     1      -1.399  -4.622  -9.474  1.00  0.00    +0.000 C 
BRANCH  37  38
ATOM     38  O   UNL     1      -2.571  -5.357  -9.864  1.00  0.00    +0.000 OA
ATOM     39  H   UNL     1      -3.317  -4.882  -9.447  1.00  0.00    +0.000 HD
ENDBRANCH  37  38
BRANCH  36  40
ATOM     40  O   UNL     1       0.614  -4.635 -10.862  1.00  0.00    +0.000 OA
ATOM     41  H   UNL     1       0.025  -4.500 -11.630  1.00  0.00    +0.000 HD
ENDBRANCH  36  40
BRANCH  35  42
ATOM     42  O   UNL     1       0.214  -6.840  -7.997  1.00  0.00    +0.000 OA
ATOM     43  H   UNL     1       0.247  -7.606  -8.604  1.00  0.00    +0.000 HD
ENDBRANCH  35  42
BRANCH  34  44
ATOM     44  C   UNL     1       2.186  -3.700  -7.983  1.00  0.00    +0.000 C 
BRANCH  44  45
ATOM     45  O   UNL     1       3.352  -4.477  -7.702  1.00  0.00    +0.000 OA
BRANCH  45  46
ATOM     46  C   UNL     1       4.546  -3.693  -7.639  1.00  0.00    +0.000 C 
ATOM     47  O   UNL     1       5.678  -4.550  -7.840  1.00  0.00    +0.000 OA
ATOM     48  C   UNL     1       6.074  -5.335  -6.707  1.00  0.00    +0.000 C 
ATOM     49  C   UNL     1       6.415  -4.465  -5.474  1.00  0.00    +0.000 C 
ATOM     50  C   UNL     1       6.031  -2.998  -5.715  1.00  0.00    +0.000 C 
ATOM     51  C   UNL     1       4.629  -2.915  -6.306  1.00  0.00    +0.000 C 
BRANCH  50  52
ATOM     52  O   UNL     1       6.027  -2.257  -4.477  1.00  0.00    +0.000 OA
ATOM     53  H   UNL     1       6.853  -2.512  -4.013  1.00  0.00    +0.000 HD
ENDBRANCH  50  52
BRANCH  51  54
ATOM     54  O   UNL     1       4.279  -1.532  -6.490  1.00  0.00    +0.000 OA
ATOM     55  H   UNL     1       4.566  -1.092  -5.664  1.00  0.00    +0.000 HD
ENDBRANCH  51  54
BRANCH  49  56
ATOM     56  O   UNL     1       7.841  -4.517  -5.246  1.00  0.00    +0.000 OA
BRANCH  56  57
ATOM     57  C   UNL     1       8.177  -4.792  -3.880  1.00  0.00    +0.000 C 
ATOM     58  O   UNL     1       7.878  -3.651  -3.074  1.00  0.00    +0.000 OA
ATOM     59  C   UNL     1       7.946  -3.977  -1.666  1.00  0.00    +0.000 C 
ATOM     60  C   UNL     1       9.141  -4.907  -1.330  1.00  0.00    +0.000 C 
ATOM     61  C   UNL     1      10.247  -4.799  -2.399  1.00  0.00    +0.000 C 
ATOM     62  C   UNL     1       9.697  -5.065  -3.817  1.00  0.00    +0.000 C 
BRANCH  62  63
ATOM     63  O   UNL     1       9.973  -6.414  -4.217  1.00  0.00    +0.000 OA
ATOM     64  H   UNL     1       9.587  -6.524  -5.105  1.00  0.00    +0.000 HD
ENDBRANCH  62  63
BRANCH  60  65
ATOM     65  O   UNL     1       8.647  -6.256  -1.293  1.00  0.00    +0.000 OA
ATOM     66  H   UNL     1       9.413  -6.850  -1.180  1.00  0.00    +0.000 HD
ENDBRANCH  60  65
BRANCH  61  67
ATOM     67  O   UNL     1      10.875  -3.512  -2.320  1.00  0.00    +0.000 OA
ATOM     68  H   UNL     1      10.341  -2.874  -2.826  1.00  0.00    +0.000 HD
ENDBRANCH  61  67
BRANCH  59  69
ATOM     69  C   UNL     1       8.000  -2.657  -0.886  1.00  0.00    +0.000 C 
BRANCH  69  70
ATOM     70  O   UNL     1       7.856  -2.869   0.512  1.00  0.00    +0.000 OA
ATOM     71  H   UNL     1       6.925  -3.098   0.679  1.00  0.00    +0.000 HD
ENDBRANCH  69  70
ENDBRANCH  59  69
ENDBRANCH  56  57
ENDBRANCH  49  56
BRANCH  48  72
ATOM     72  C   UNL     1       5.052  -6.434  -6.369  1.00  0.00    +0.000 C 
BRANCH  72  73
ATOM     73  O   UNL     1       5.598  -7.332  -5.405  1.00  0.00    +0.000 OA
ATOM     74  H   UNL     1       4.962  -8.063  -5.311  1.00  0.00    +0.000 HD
ENDBRANCH  72  73
ENDBRANCH  48  72
ENDBRANCH  45  46
ENDBRANCH  44  45
ENDBRANCH  34  44
ENDBRANCH  31  32
ENDBRANCH   9  31
BRANCH   1  75
ATOM     75  O   UNL     1      -2.590  -0.406   3.340  1.00  0.00    +0.000 OA
BRANCH  75  80
ATOM     76  C   UNL     1      -0.900   0.820   6.385  1.00  0.00    +0.000 C 
ATOM     77  C   UNL     1      -1.970   0.006   7.146  1.00  0.00    +0.000 C 
ATOM     78  C   UNL     1      -2.574  -1.095   6.267  1.00  0.00    +0.000 C 
ATOM     79  O   UNL     1      -1.681  -1.466   5.221  1.00  0.00    +0.000 OA
ATOM     80  C   UNL     1      -1.494  -0.416   4.264  1.00  0.00    +0.000 C 
ATOM     81  C   UNL     1      -1.332   0.978   4.922  1.00  0.00    +0.000 C 
BRANCH  77  82
ATOM     82  O   UNL     1      -3.035   0.850   7.598  1.00  0.00    +0.000 OA
ATOM     83  H   UNL     1      -2.610   1.502   8.193  1.00  0.00    +0.000 HD
ENDBRANCH  77  82
BRANCH  81  84
ATOM     84  O   UNL     1      -0.310   1.708   4.193  1.00  0.00    +0.000 OA
BRANCH  84  85
ATOM     85  C   UNL     1      -0.589   3.000   3.862  1.00  0.00    +0.000 C 
ATOM     86  C   UNL     1       0.556   3.574   3.085  1.00  0.00    +0.000 C 
ATOM     87  O   UNL     1      -1.607   3.614   4.146  1.00  0.00    +0.000 OA
ENDBRANCH  84  85
ENDBRANCH  81  84
BRANCH  76  88
ATOM     88  O   UNL     1      -0.704   2.131   6.941  1.00  0.00    +0.000 OA
BRANCH  88  89
ATOM     89  C   UNL     1      -0.069   2.154   8.219  1.00  0.00    +0.000 C 
ATOM     90  O   UNL     1      -1.086   2.143   9.224  1.00  0.00    +0.000 OA
ATOM     91  C   UNL     1      -1.476   3.427   9.706  1.00  0.00    +0.000 C 
ATOM     92  C   UNL     1      -1.360   4.530   8.660  1.00  0.00    +0.000 C 
ATOM     93  C   UNL     1       0.122   4.719   8.314  1.00  0.00    +0.000 C 
ATOM     94  C   UNL     1       0.879   3.375   8.247  1.00  0.00    +0.000 C 
BRANCH  92  95
ATOM     95  O   UNL     1      -1.892   5.758   9.171  1.00  0.00    +0.000 OA
ATOM     96  H   UNL     1      -2.855   5.647   9.265  1.00  0.00    +0.000 HD
ENDBRANCH  92  95
BRANCH  94  97
ATOM     97  O   UNL     1       1.782   3.278   9.361  1.00  0.00    +0.000 OA
ATOM     98  H   UNL     1       2.454   3.977   9.233  1.00  0.00    +0.000 HD
ENDBRANCH  94  97
BRANCH  93  99
ATOM     99  O   UNL     1       0.183   5.415   7.045  1.00  0.00    +0.000 OA
BRANCH  99 100
ATOM    100  C   UNL     1       1.387   5.935   6.713  1.00  0.00    +0.000 C 
ATOM    101  O   UNL     1       2.418   5.811   7.358  1.00  0.00    +0.000 OA
BRANCH 100 102
ATOM    102  C   UNL     1       1.304   6.622   5.398  1.00  0.00    +0.000 A 
ATOM    103  C   UNL     1       0.078   6.897   4.782  1.00  0.00    +0.000 A 
ATOM    104  C   UNL     1       0.042   7.515   3.529  1.00  0.00    +0.000 A 
ATOM    105  C   UNL     1       1.232   7.856   2.876  1.00  0.00    +0.000 A 
ATOM    106  C   UNL     1       2.472   7.592   3.498  1.00  0.00    +0.000 A 
ATOM    107  C   UNL     1       2.498   6.985   4.758  1.00  0.00    +0.000 A 
BRANCH 105 108
ATOM    108  O   UNL     1       1.292   8.446   1.637  1.00  0.00    +0.000 OA
ATOM    109  C   UNL     1       0.063   8.661   0.953  1.00  0.00    +0.000 C 
ENDBRANCH 105 108
BRANCH 106 110
ATOM    110  O   UNL     1       3.590   7.959   2.789  1.00  0.00    +0.000 OA
ATOM    111  C   UNL     1       4.859   7.687   3.365  1.00  0.00    +0.000 C 
ENDBRANCH 106 110
ENDBRANCH 100 102
ENDBRANCH  99 100
ENDBRANCH  93  99
ENDBRANCH  88  89
ENDBRANCH  76  88
ENDBRANCH  75  80
ENDBRANCH   1  75
TORSDOF 39
