REMARK  Name = /srv/my_project/app/compsite/backup/Dave/CORINA_stuff/newPDBs/SANC00505.pdb
AUTHORGENERATED BY OPEN BABEL 2.3.2
REMARK  49 active torsions:
REMARK  status: ('A' for Active; 'I' for Inactive)
REMARK    1  A    between atoms: C_2  and  O_3
REMARK    2  A    between atoms: O_3  and  C_4
REMARK    3  A    between atoms: C_15  and  O_17
REMARK    4  A    between atoms: O_17  and  C_18
REMARK    5  A    between atoms: C_21  and  C_23
REMARK    6  A    between atoms: C_23  and  O_24
REMARK    7  A    between atoms: O_24  and  C_25
REMARK    8  A    between atoms: C_28  and  C_30
REMARK    9  A    between atoms: C_30  and  O_31
REMARK   10  A    between atoms: C_32  and  O_34
REMARK   11  A    between atoms: O_34  and  C_35
REMARK   12  A    between atoms: C_38  and  C_40
REMARK   13  A    between atoms: C_40  and  O_41
REMARK   14  A    between atoms: C_42  and  O_44
REMARK   15  A    between atoms: C_45  and  O_47
REMARK   16  A    between atoms: C_48  and  O_50
REMARK   17  A    between atoms: C_51  and  O_53
REMARK   18  A    between atoms: C_54  and  O_56
REMARK   19  A    between atoms: C_57  and  O_59
REMARK   20  A    between atoms: C_60  and  O_62
REMARK   21  A    between atoms: C_63  and  O_65
REMARK   22  A    between atoms: C_68  and  C_69
REMARK   23  A    between atoms: C_74  and  C_75
REMARK   24  A    between atoms: C_76  and  O_77
REMARK   25  A    between atoms: C_76  and  C_78
REMARK   26  A    between atoms: C_78  and  C_80
REMARK   27  A    between atoms: C_78  and  C_81
REMARK   28  A    between atoms: C_81  and  C_83
REMARK   29  A    between atoms: C_83  and  C_84
REMARK   30  A    between atoms: C_84  and  C_85
REMARK   31  A    between atoms: C_85  and  C_86
REMARK   32  A    between atoms: C_85  and  C_87
REMARK   33  A    between atoms: C_90  and  O_92
REMARK   34  A    between atoms: C_93  and  O_95
REMARK   35  A    between atoms: O_95  and  C_96
REMARK   36  A    between atoms: C_100  and  O_102
REMARK   37  A    between atoms: C_103  and  O_105
REMARK   38  A    between atoms: C_106  and  O_108
REMARK   39  A    between atoms: O_108  and  C_109
REMARK   40  A    between atoms: C_109  and  C_111
REMARK   41  A    between atoms: C_113  and  O_114
REMARK   42  A    between atoms: O_114  and  C_115
REMARK   43  A    between atoms: C_116  and  O_117
REMARK   44  A    between atoms: O_117  and  C_118
REMARK   45  A    between atoms: C_119  and  O_120
REMARK   46  A    between atoms: O_120  and  C_121
REMARK   47  A    between atoms: C_123  and  O_125
REMARK   48  A    between atoms: O_125  and  C_126
REMARK   49  A    between atoms: C_126  and  C_127
REMARK                            x       y       z     vdW  Elec       q    Type
REMARK                         _______ _______ _______ _____ _____    ______ ____
ROOT
ATOM      1  C   UNL     1       3.315   1.544   1.331  1.00  0.00    +0.000 C 
ATOM      2  C   UNL     1       2.046   2.327   0.930  1.00  0.00    +0.000 C 
ATOM      3  C   UNL     1       1.395   1.454  -0.132  1.00  0.00    +0.000 C 
ATOM      4  C   UNL     1       0.276   2.078  -0.981  1.00  0.00    +0.000 C 
ATOM      5  C   UNL     1      -0.850   2.646  -0.088  1.00  0.00    +0.000 C 
ATOM      6  C   UNL     1      -2.237   2.523  -0.639  1.00  0.00    +0.000 C 
ATOM      7  C   UNL     1      -2.527   2.009  -1.847  1.00  0.00    +0.000 C 
ATOM      8  C   UNL     1      -3.939   1.608  -2.195  1.00  0.00    +0.000 C 
ATOM      9  C   UNL     1      -3.992   0.070  -2.258  1.00  0.00    +0.000 C 
ATOM     10  C   UNL     1      -2.940  -0.503  -3.233  1.00  0.00    +0.000 C 
ATOM     11  C   UNL     1      -2.028   0.562  -3.849  1.00  0.00    +0.000 C 
ATOM     12  C   UNL     1      -1.441   1.588  -2.838  1.00  0.00    +0.000 C 
ATOM     13  C   UNL     1      -1.019   2.828  -3.662  1.00  0.00    +0.000 C 
ATOM     14  C   UNL     1      -0.253   1.010  -1.988  1.00  0.00    +0.000 C 
ATOM     15  C   UNL     1       0.904   0.393  -2.805  1.00  0.00    +0.000 C 
ATOM     16  C   UNL     1       2.048  -0.141  -1.918  1.00  0.00    +0.000 C 
ATOM     17  C   UNL     1       2.603   0.931  -0.954  1.00  0.00    +0.000 C 
ATOM     18  C   UNL     1       3.311   2.039  -1.777  1.00  0.00    +0.000 C 
ATOM     19  C   UNL     1       3.532   0.436   0.220  1.00  0.00    +0.000 C 
ENDROOT
BRANCH  19  20
ATOM     20  C   UNL     1       5.032   0.178  -0.110  1.00  0.00    +0.000 C 
ATOM     21  C   UNL     1       5.260  -0.929  -1.141  1.00  0.00    +0.000 C 
BRANCH  20  22
ATOM     22  C   UNL     1       5.816  -0.195   1.158  1.00  0.00    +0.000 C 
ATOM     23  O   UNL     1       5.247  -0.650   2.155  1.00  0.00    +0.000 OA
BRANCH  22  24
ATOM     24  C   UNL     1       7.329  -0.028   1.123  1.00  0.00    +0.000 C 
BRANCH  24  25
ATOM     25  C   UNL     1       8.046  -1.369   1.290  1.00  0.00    +0.000 C 
BRANCH  25  26
ATOM     26  C   UNL     1       8.243  -1.811   2.753  1.00  0.00    +0.000 C 
ATOM     27  C   UNL     1       9.321  -0.987   3.459  1.00  0.00    +0.000 C 
ATOM     28  C   UNL     1       8.625  -3.293   2.806  1.00  0.00    +0.000 C 
ENDBRANCH  25  26
ENDBRANCH  24  25
ENDBRANCH  22  24
ENDBRANCH  20  22
ENDBRANCH  19  20
BRANCH  19  29
ATOM     29  O   UNL     1       2.962  -0.798   0.717  1.00  0.00    +0.000 OA
ATOM     30  H   UNL     1       3.482  -1.048   1.513  1.00  0.00    +0.000 HD
ENDBRANCH  19  29
BRANCH   1  31
ATOM     31  O   UNL     1       4.449   2.404   1.442  1.00  0.00    +0.000 OA
BRANCH  31  32
ATOM     32  C   UNL     1       4.339   3.366   2.499  1.00  0.00    +0.000 C 
ATOM     33  O   UNL     1       4.015   4.635   1.945  1.00  0.00    +0.000 OA
ATOM     34  C   UNL     1       3.773   5.628   2.945  1.00  0.00    +0.000 C 
ATOM     35  C   UNL     1       4.590   5.437   4.231  1.00  0.00    +0.000 C 
ATOM     36  C   UNL     1       5.936   4.766   3.922  1.00  0.00    +0.000 C 
ATOM     37  C   UNL     1       5.692   3.403   3.246  1.00  0.00    +0.000 C 
BRANCH  35  38
ATOM     38  O   UNL     1       4.791   6.694   4.876  1.00  0.00    +0.000 OA
ATOM     39  H   UNL     1       5.573   7.093   4.442  1.00  0.00    +0.000 HD
ENDBRANCH  35  38
BRANCH  37  40
ATOM     40  O   UNL     1       5.620   2.352   4.247  1.00  0.00    +0.000 OA
BRANCH  40  41
ATOM     41  C   UNL     1       6.810   1.862   4.684  1.00  0.00    +0.000 C 
ATOM     42  C   UNL     1       6.582   0.740   5.650  1.00  0.00    +0.000 C 
ATOM     43  O   UNL     1       7.908   2.275   4.341  1.00  0.00    +0.000 OA
ENDBRANCH  40  41
ENDBRANCH  37  40
BRANCH  36  44
ATOM     44  O   UNL     1       6.643   5.661   3.040  1.00  0.00    +0.000 OA
BRANCH  44  45
ATOM     45  C   UNL     1       8.070   5.619   3.197  1.00  0.00    +0.000 C 
ATOM     46  O   UNL     1       8.379   6.267   4.435  1.00  0.00    +0.000 OA
ATOM     47  C   UNL     1       9.504   7.144   4.401  1.00  0.00    +0.000 C 
ATOM     48  C   UNL     1      10.643   6.568   3.560  1.00  0.00    +0.000 C 
ATOM     49  C   UNL     1      10.204   6.495   2.095  1.00  0.00    +0.000 C 
ATOM     50  C   UNL     1       8.678   6.301   1.953  1.00  0.00    +0.000 C 
BRANCH  49  51
ATOM     51  O   UNL     1      10.602   7.717   1.450  1.00  0.00    +0.000 OA
ATOM     52  H   UNL     1      10.129   7.759   0.590  1.00  0.00    +0.000 HD
ENDBRANCH  49  51
BRANCH  48  53
ATOM     53  O   UNL     1      10.966   5.246   4.009  1.00  0.00    +0.000 OA
ATOM     54  H   UNL     1      10.874   5.225   4.978  1.00  0.00    +0.000 HD
ENDBRANCH  48  53
BRANCH  50  55
ATOM     55  O   UNL     1       8.385   5.488   0.780  1.00  0.00    +0.000 OA
BRANCH  55  56
ATOM     56  C   UNL     1       8.514   6.111  -0.413  1.00  0.00    +0.000 C 
ATOM     57  O   UNL     1       8.880   7.267  -0.563  1.00  0.00    +0.000 OA
BRANCH  56  58
ATOM     58  C   UNL     1       8.197   5.204  -1.548  1.00  0.00    +0.000 A 
ATOM     59  C   UNL     1       8.193   5.761  -2.838  1.00  0.00    +0.000 A 
ATOM     60  C   UNL     1       7.927   4.968  -3.957  1.00  0.00    +0.000 A 
ATOM     61  C   UNL     1       7.660   3.601  -3.773  1.00  0.00    +0.000 A 
ATOM     62  C   UNL     1       7.716   3.034  -2.490  1.00  0.00    +0.000 A 
ATOM     63  C   UNL     1       7.945   3.839  -1.374  1.00  0.00    +0.000 A 
BRANCH  60  64
ATOM     64  O   UNL     1       7.890   5.426  -5.248  1.00  0.00    +0.000 OA
ATOM     65  C   UNL     1       8.402   6.732  -5.489  1.00  0.00    +0.000 C 
ENDBRANCH  60  64
BRANCH  61  66
ATOM     66  O   UNL     1       7.400   2.816  -4.870  1.00  0.00    +0.000 OA
ATOM     67  C   UNL     1       5.990   2.724  -5.074  1.00  0.00    +0.000 C 
ENDBRANCH  61  66
BRANCH  62  68
ATOM     68  O   UNL     1       7.500   1.699  -2.253  1.00  0.00    +0.000 OA
ATOM     69  C   UNL     1       8.531   0.895  -2.836  1.00  0.00    +0.000 C 
ENDBRANCH  62  68
ENDBRANCH  56  58
ENDBRANCH  55  56
ENDBRANCH  50  55
ENDBRANCH  44  45
ENDBRANCH  36  44
ENDBRANCH  31  32
ENDBRANCH   1  31
BRANCH   9  70
ATOM     70  O   UNL     1      -5.323  -0.318  -2.614  1.00  0.00    +0.000 OA
BRANCH  70  71
ATOM     71  C   UNL     1      -5.617  -1.710  -2.429  1.00  0.00    +0.000 C 
ATOM     72  O   UNL     1      -6.553  -2.053  -3.462  1.00  0.00    +0.000 OA
ATOM     73  C   UNL     1      -7.616  -2.961  -3.128  1.00  0.00    +0.000 C 
ATOM     74  C   UNL     1      -7.113  -4.047  -2.163  1.00  0.00    +0.000 C 
ATOM     75  C   UNL     1      -6.548  -3.455  -0.866  1.00  0.00    +0.000 C 
ATOM     76  C   UNL     1      -6.147  -1.980  -1.005  1.00  0.00    +0.000 C 
BRANCH  76  77
ATOM     77  O   UNL     1      -5.194  -1.689   0.031  1.00  0.00    +0.000 OA
ATOM     78  H   UNL     1      -5.679  -1.796   0.868  1.00  0.00    +0.000 HD
ENDBRANCH  76  77
BRANCH  75  79
ATOM     79  O   UNL     1      -7.510  -3.562   0.199  1.00  0.00    +0.000 OA
ATOM     80  H   UNL     1      -7.484  -4.497   0.501  1.00  0.00    +0.000 HD
ENDBRANCH  75  79
BRANCH  74  81
ATOM     81  O   UNL     1      -6.061  -4.808  -2.784  1.00  0.00    +0.000 OA
ATOM     82  H   UNL     1      -6.242  -4.851  -3.742  1.00  0.00    +0.000 HD
ENDBRANCH  74  81
BRANCH  73  83
ATOM     83  C   UNL     1      -8.868  -2.191  -2.643  1.00  0.00    +0.000 C 
BRANCH  83  84
ATOM     84  O   UNL     1     -10.108  -2.743  -3.090  1.00  0.00    +0.000 OA
BRANCH  84  85
ATOM     85  C   UNL     1     -10.520  -3.938  -2.427  1.00  0.00    +0.000 C 
ATOM     86  O   UNL     1     -10.057  -5.060  -3.176  1.00  0.00    +0.000 OA
ATOM     87  C   UNL     1     -10.288  -6.317  -2.523  1.00  0.00    +0.000 C 
ATOM     88  C   UNL     1     -11.667  -6.391  -1.822  1.00  0.00    +0.000 C 
ATOM     89  C   UNL     1     -12.648  -5.361  -2.418  1.00  0.00    +0.000 C 
ATOM     90  C   UNL     1     -12.067  -3.937  -2.310  1.00  0.00    +0.000 C 
BRANCH  90  91
ATOM     91  O   UNL     1     -12.443  -3.347  -1.047  1.00  0.00    +0.000 OA
ATOM     92  H   UNL     1     -12.365  -4.033  -0.357  1.00  0.00    +0.000 HD
ENDBRANCH  90  91
BRANCH  89  93
ATOM     93  O   UNL     1     -12.965  -5.651  -3.780  1.00  0.00    +0.000 OA
ATOM     94  H   UNL     1     -13.243  -6.584  -3.846  1.00  0.00    +0.000 HD
ENDBRANCH  89  93
BRANCH  87  95
ATOM     95  C   UNL     1     -10.109  -7.419  -3.580  1.00  0.00    +0.000 C 
BRANCH  95  96
ATOM     96  O   UNL     1     -11.193  -7.452  -4.499  1.00  0.00    +0.000 OA
ATOM     97  H   UNL     1     -11.283  -6.541  -4.854  1.00  0.00    +0.000 HD
ENDBRANCH  95  96
ENDBRANCH  87  95
BRANCH  88  98
ATOM     98  O   UNL     1     -11.489  -6.049  -0.425  1.00  0.00    +0.000 OA
BRANCH  98  99
ATOM     99  C   UNL     1     -11.698  -7.148   0.479  1.00  0.00    +0.000 C 
ATOM    100  O   UNL     1     -12.451  -6.655   1.588  1.00  0.00    +0.000 OA
ATOM    101  C   UNL     1     -11.745  -6.512   2.832  1.00  0.00    +0.000 C 
ATOM    102  C   UNL     1     -10.373  -5.874   2.599  1.00  0.00    +0.000 C 
ATOM    103  C   UNL     1      -9.506  -6.761   1.677  1.00  0.00    +0.000 C 
ATOM    104  C   UNL     1     -10.335  -7.769   0.859  1.00  0.00    +0.000 C 
BRANCH 104 105
ATOM    105  O   UNL     1     -10.506  -8.970   1.622  1.00  0.00    +0.000 OA
ATOM    106  H   UNL     1     -10.990  -9.617   1.080  1.00  0.00    +0.000 HD
ENDBRANCH 104 105
BRANCH 103 107
ATOM    107  O   UNL     1      -8.749  -5.897   0.801  1.00  0.00    +0.000 OA
ATOM    108  H   UNL     1      -9.406  -5.362   0.310  1.00  0.00    +0.000 HD
ENDBRANCH 103 107
BRANCH 102 109
ATOM    109  O   UNL     1      -9.681  -5.641   3.827  1.00  0.00    +0.000 OA
ATOM    110  H   UNL     1      -8.821  -5.239   3.601  1.00  0.00    +0.000 HD
ENDBRANCH 102 109
BRANCH 101 111
ATOM    111  C   UNL     1     -12.607  -5.657   3.777  1.00  0.00    +0.000 C 
BRANCH 111 112
ATOM    112  O   UNL     1     -13.849  -6.302   4.075  1.00  0.00    +0.000 OA
ATOM    113  H   UNL     1     -13.641  -7.185   4.425  1.00  0.00    +0.000 HD
ENDBRANCH 111 112
ENDBRANCH 101 111
ENDBRANCH  98  99
ENDBRANCH  88  98
ENDBRANCH  84  85
ENDBRANCH  83  84
ENDBRANCH  73  83
ENDBRANCH  70  71
ENDBRANCH   9  70
TORSDOF 40
