REMARK  Name = /srv/my_project/app/compsite/backup/Dave/CORINA_stuff/newPDBs/SANC00588.pdb
AUTHORGENERATED BY OPEN BABEL 2.3.2
REMARK  12 active torsions:
REMARK  status: ('A' for Active; 'I' for Inactive)
REMARK    1  A    between atoms: C_5  and  C_6
REMARK    2  A    between atoms: C_7  and  C_8
REMARK    3  A    between atoms: C_8  and  C_9
REMARK    4  A    between atoms: C_9  and  C_10
REMARK    5  A    between atoms: C_11  and  C_12
REMARK    6  A    between atoms: C_15  and  O_16
REMARK    7  A    between atoms: C_18  and  C_19
REMARK    8  A    between atoms: C_18  and  C_20
REMARK    9  A    between atoms: C_25  and  C_26
REMARK   10  A    between atoms: C_27  and  C_28
REMARK   11  A    between atoms: C_33  and  C_34
REMARK   12  A    between atoms: C_33  and  C_35
REMARK                            x       y       z     vdW  Elec       q    Type
REMARK                         _______ _______ _______ _____ _____    ______ ____
ROOT
ATOM      1  C   UNL     1      -0.582   0.203  -0.524  1.00  0.00    +0.000 C 
ENDROOT
BRANCH   1   2
ATOM      2  C   UNL     1      -1.996  -0.205  -0.963  1.00  0.00    +0.000 C 
ATOM      3  C   UNL     1      -2.174  -0.999  -2.043  1.00  0.00    +0.000 C 
ATOM      4  C   UNL     1      -1.110  -1.500  -2.980  1.00  0.00    +0.000 C 
ATOM      5  C   UNL     1      -3.536  -1.464  -2.403  1.00  0.00    +0.000 C 
ATOM      6  O   UNL     1      -3.748  -2.263  -3.314  1.00  0.00    +0.000 OA
ATOM      7  C   UNL     1      -4.700  -0.921  -1.661  1.00  0.00    +0.000 C 
ATOM      8  C   UNL     1      -4.564  -0.085  -0.614  1.00  0.00    +0.000 C 
ATOM      9  C   UNL     1      -5.800   0.569   0.058  1.00  0.00    +0.000 C 
ATOM     10  C   UNL     1      -6.691   1.326  -0.951  1.00  0.00    +0.000 C 
ATOM     11  C   UNL     1      -6.639  -0.497   0.794  1.00  0.00    +0.000 C 
ATOM     12  C   UNL     1      -5.392   1.642   1.089  1.00  0.00    +0.000 C 
ATOM     13  O   UNL     1      -6.050   1.859   2.111  1.00  0.00    +0.000 OA
ATOM     14  C   UNL     1      -4.199   2.517   0.789  1.00  0.00    +0.000 C 
ATOM     15  C   UNL     1      -3.178   1.869  -0.134  1.00  0.00    +0.000 C 
ATOM     16  C   UNL     1      -3.171   0.321  -0.092  1.00  0.00    +0.000 C 
ATOM     17  C   UNL     1      -2.968  -0.243   1.334  1.00  0.00    +0.000 C 
BRANCH   7  18
ATOM     18  O   UNL     1      -5.937  -1.317  -2.135  1.00  0.00    +0.000 OA
ATOM     19  H   UNL     1      -5.740  -1.933  -2.876  1.00  0.00    +0.000 HD
ENDBRANCH   7  18
ENDBRANCH   1   2
BRANCH   1  20
ATOM     20  C   UNL     1       0.278  -0.961   0.009  1.00  0.00    +0.000 C 
BRANCH  20  26
ATOM     21  C   UNL     1       4.014  -0.061   0.992  1.00  0.00    +0.000 C 
ATOM     22  C   UNL     1       3.763   0.488   2.389  1.00  0.00    +0.000 C 
ATOM     23  C   UNL     1       2.671  -0.297   3.083  1.00  0.00    +0.000 C 
ATOM     24  C   UNL     1       1.495  -0.681   2.207  1.00  0.00    +0.000 C 
ATOM     25  C   UNL     1       0.377  -1.256   3.051  1.00  0.00    +0.000 C 
ATOM     26  C   UNL     1       1.484  -0.525   0.855  1.00  0.00    +0.000 C 
ATOM     27  C   UNL     1       2.729   0.066   0.097  1.00  0.00    +0.000 C 
ATOM     28  C   UNL     1       2.453   1.560  -0.214  1.00  0.00    +0.000 C 
ATOM     29  C   UNL     1       2.979  -0.694  -1.247  1.00  0.00    +0.000 C 
ATOM     30  C   UNL     1       4.219  -0.301  -2.046  1.00  0.00    +0.000 C 
ATOM     31  C   UNL     1       5.474  -0.854  -1.410  1.00  0.00    +0.000 C 
ATOM     32  O   UNL     1       5.962  -1.916  -1.799  1.00  0.00    +0.000 OA
ATOM     33  C   UNL     1       6.091  -0.024  -0.274  1.00  0.00    +0.000 C 
ATOM     34  C   UNL     1       7.004   1.029  -0.911  1.00  0.00    +0.000 C 
ATOM     35  C   UNL     1       6.931  -0.902   0.663  1.00  0.00    +0.000 C 
ATOM     36  O   UNL     1       5.113   0.700   0.472  1.00  0.00    +0.000 OA
ENDBRANCH  20  26
ENDBRANCH   1  20
TORSDOF 4
