REMARK  Name = 
REMARK  23 active torsions:
REMARK  status: ('A' for Active; 'I' for Inactive)
REMARK    1  A    between atoms: C_1  and  C_2
REMARK    2  A    between atoms: C_2  and  C_48
REMARK    3  A    between atoms: C_3  and  C_4
REMARK    4  A    between atoms: C_4  and  C_6
REMARK    5  A    between atoms: C_4  and  N_9
REMARK    6  A    between atoms: C_6  and  C_7
REMARK    7  A    between atoms: C_6  and  C_8
REMARK    8  A    between atoms: N_9  and  C_10
REMARK    9  A    between atoms: C_14  and  C_16
REMARK   10  A    between atoms: C_16  and  N_18
REMARK   11  A    between atoms: C_16  and  C_44
REMARK   12  A    between atoms: C_19  and  C_21
REMARK   13  A    between atoms: C_21  and  N_23
REMARK   14  A    between atoms: C_21  and  C_28
REMARK   15  A    between atoms: N_23  and  C_24
REMARK   16  A    between atoms: C_28  and  C_29
REMARK   17  A    between atoms: C_28  and  C_30
REMARK   18  A    between atoms: C_28  and  C_31
REMARK   19  A    between atoms: N_33  and  C_34
REMARK   20  A    between atoms: C_44  and  C_45
REMARK   21  A    between atoms: C_44  and  C_46
REMARK   22  A    between atoms: C_44  and  C_47
REMARK   23  A    between atoms: C_48  and  O_50
REMARK                            x       y       z     vdW  Elec       q    Type
REMARK                         _______ _______ _______ _____ _____    ______ ____
ROOT
ATOM      1  N   UNL     1       0.125  -0.739  -1.548  1.00  0.00    +0.000 N 
ATOM      2  C   UNL     1      -0.479   0.500  -1.579  1.00  0.00    +0.000 C 
ATOM      3  O   UNL     1       0.136   1.546  -1.383  1.00  0.00    +0.000 OA
ATOM      4  H   UNL     1      -0.483  -1.532  -1.410  1.00  0.00    +0.000 HD
ENDROOT
BRANCH   1   5
ATOM      5  C   UNL     1       1.528  -0.954  -1.156  1.00  0.00    +0.000 C 
BRANCH   5   8
ATOM      6  N   UNL     1       2.875  -0.013   0.793  1.00  0.00    +0.000 N 
ATOM      7  C   UNL     1       2.750   1.443   0.719  1.00  0.00    +0.000 C 
ATOM      8  C   UNL     1       1.692  -0.619   0.366  1.00  0.00    +0.000 C 
ATOM      9  O   UNL     1       0.824  -0.971   1.174  1.00  0.00    +0.000 OA
BRANCH   6  10
ATOM     10  C   UNL     1       3.461  -0.532   2.065  1.00  0.00    +0.000 C 
BRANCH  10  13
ATOM     11  C   UNL     1       3.698   1.298   4.651  1.00  0.00    +0.000 C 
ATOM     12  C   UNL     1       4.717   1.157   3.561  1.00  0.00    +0.000 C 
ATOM     13  C   UNL     1       4.610   0.381   2.461  1.00  0.00    +0.000 C 
BRANCH  12  14
ATOM     14  C   UNL     1       5.971   1.943   3.686  1.00  0.00    +0.000 C 
ATOM     15  O   UNL     1       6.897   1.969   2.894  1.00  0.00    +0.000 OA
BRANCH  14  16
ATOM     16  O   UNL     1       6.009   2.670   4.814  1.00  0.00    +0.000 OA
ATOM     17  H   UNL     1       6.874   3.127   4.764  1.00  0.00    +0.000 HD
ENDBRANCH  14  16
ENDBRANCH  12  14
ENDBRANCH  10  13
BRANCH  10  18
ATOM     18  C   UNL     1       4.021  -2.000   1.959  1.00  0.00    +0.000 C 
ATOM     19  C   UNL     1       4.819  -2.405   3.216  1.00  0.00    +0.000 C 
ATOM     20  C   UNL     1       2.943  -3.072   1.754  1.00  0.00    +0.000 C 
ENDBRANCH  10  18
ENDBRANCH   6  10
ENDBRANCH   5   8
BRANCH   5  21
ATOM     21  C   UNL     1       2.593  -0.682  -2.275  1.00  0.00    +0.000 C 
ATOM     22  C   UNL     1       2.688   0.767  -2.771  1.00  0.00    +0.000 C 
ATOM     23  C   UNL     1       4.000  -1.138  -1.833  1.00  0.00    +0.000 C 
ATOM     24  C   UNL     1       2.224  -1.549  -3.512  1.00  0.00    +0.000 C 
ENDBRANCH   5  21
ENDBRANCH   1   5
BRANCH   2  25
ATOM     25  C   UNL     1      -2.010   0.506  -1.861  1.00  0.00    +0.000 C 
BRANCH  25  26
ATOM     26  N   UNL     1      -2.321  -0.428  -2.988  1.00  0.00    +0.000 NA
ATOM     27  C   UNL     1      -1.825   0.069  -4.265  1.00  0.00    +0.000 C 
ATOM     28  H   UNL     1      -1.937  -1.350  -2.804  1.00  0.00    +0.000 HD
ENDBRANCH  25  26
BRANCH  25  29
ATOM     29  C   UNL     1      -2.897   0.274  -0.557  1.00  0.00    +0.000 C 
ATOM     30  C   UNL     1      -2.783  -1.188  -0.065  1.00  0.00    +0.000 C 
ATOM     31  C   UNL     1      -2.371   1.217   0.557  1.00  0.00    +0.000 C 
BRANCH  29  32
ATOM     32  C   UNL     1      -4.394   0.613  -0.809  1.00  0.00    +0.000 A 
ATOM     33  C   UNL     1      -4.955   1.061  -1.994  1.00  0.00    +0.000 A 
ATOM     34  N   UNL     1      -6.297   1.245  -1.824  1.00  0.00    +0.000 N 
ATOM     35  C   UNL     1      -7.202   1.693  -2.858  1.00  0.00    +0.000 C 
ATOM     36  C   UNL     1      -6.660   0.944  -0.533  1.00  0.00    +0.000 A 
ATOM     37  C   UNL     1      -7.915   0.990   0.097  1.00  0.00    +0.000 A 
ATOM     38  C   UNL     1      -7.996   0.627   1.442  1.00  0.00    +0.000 A 
ATOM     39  C   UNL     1      -6.861   0.232   2.137  1.00  0.00    +0.000 A 
ATOM     40  C   UNL     1      -5.616   0.189   1.498  1.00  0.00    +0.000 A 
ATOM     41  C   UNL     1      -5.494   0.547   0.134  1.00  0.00    +0.000 A 
ENDBRANCH  29  32
ENDBRANCH  25  29
ENDBRANCH   2  25
TORSDOF 12
