REMARK  Name = /srv/my_project/app/compsite/backup/Dave/CORINA_stuff/newPDBs/SANC00520.pdb
AUTHORGENERATED BY OPEN BABEL 2.3.2
REMARK  4 active torsions:
REMARK  status: ('A' for Active; 'I' for Inactive)
REMARK    1  A    between atoms: C_4  and  C_6
REMARK    2  A    between atoms: C_11  and  O_12
REMARK    3  A    between atoms: C_16  and  O_17
REMARK    4  A    between atoms: C_19  and  O_20
REMARK                            x       y       z     vdW  Elec       q    Type
REMARK                         _______ _______ _______ _____ _____    ______ ____
ROOT
ATOM      1  O   UNL     1       2.096  -2.160  -1.707  1.00  0.00    +0.000 OA
ATOM      2  C   UNL     1       1.457  -1.391  -0.991  1.00  0.00    +0.000 C 
ATOM      3  C   UNL     1      -0.040  -1.409  -0.897  1.00  0.00    +0.000 C 
ATOM      4  C   UNL     1      -0.509   0.014  -0.619  1.00  0.00    +0.000 C 
ATOM      5  O   UNL     1       0.050   0.531   0.600  1.00  0.00    +0.000 OA
ATOM      6  C   UNL     1       1.417   0.458   0.643  1.00  0.00    +0.000 A 
ATOM      7  C   UNL     1       2.058   1.325   1.526  1.00  0.00    +0.000 A 
ATOM      8  C   UNL     1       3.448   1.315   1.614  1.00  0.00    +0.000 A 
ATOM      9  C   UNL     1       4.210   0.446   0.840  1.00  0.00    +0.000 A 
ATOM     10  C   UNL     1       3.566  -0.434  -0.027  1.00  0.00    +0.000 A 
ATOM     11  C   UNL     1       2.169  -0.436  -0.122  1.00  0.00    +0.000 A 
ENDROOT
BRANCH   4  12
ATOM     12  C   UNL     1      -2.021   0.124  -0.549  1.00  0.00    +0.000 A 
ATOM     13  C   UNL     1      -2.696   0.916  -1.495  1.00  0.00    +0.000 A 
ATOM     14  C   UNL     1      -4.087   1.046  -1.462  1.00  0.00    +0.000 A 
ATOM     15  C   UNL     1      -4.825   0.388  -0.482  1.00  0.00    +0.000 A 
ATOM     16  C   UNL     1      -4.175  -0.399   0.466  1.00  0.00    +0.000 A 
ATOM     17  C   UNL     1      -2.785  -0.526   0.429  1.00  0.00    +0.000 A 
BRANCH  17  18
ATOM     18  O   UNL     1      -2.157  -1.301   1.363  1.00  0.00    +0.000 OA
ATOM     19  H   UNL     1      -2.801  -1.557   2.043  1.00  0.00    +0.000 HD
ENDBRANCH  17  18
ENDBRANCH   4  12
BRANCH   8  20
ATOM     20  O   UNL     1       4.034   2.188   2.483  1.00  0.00    +0.000 OA
ATOM     21  H   UNL     1       4.998   2.064   2.450  1.00  0.00    +0.000 HD
ENDBRANCH   8  20
BRANCH  10  22
ATOM     22  O   UNL     1       4.364  -1.277  -0.752  1.00  0.00    +0.000 OA
ATOM     23  H   UNL     1       3.782  -1.845  -1.307  1.00  0.00    +0.000 HD
ENDBRANCH  10  22
TORSDOF 4
