REMARK  Name = 
REMARK  7 active torsions:
REMARK  status: ('A' for Active; 'I' for Inactive)
REMARK    1  A    between atoms: C_1  and  C_2
REMARK    2  A    between atoms: C_2  and  C_7
REMARK    3  A    between atoms: C_3  and  C_4
REMARK    4  A    between atoms: C_7  and  C_9
REMARK    5  A    between atoms: C_10  and  C_11
REMARK    6  A    between atoms: C_11  and  C_12
REMARK    7  A    between atoms: C_11  and  C_14
REMARK                            x       y       z     vdW  Elec       q    Type
REMARK                         _______ _______ _______ _____ _____    ______ ____
ROOT
ATOM      1  C   UNL     1       0.373   0.983  -1.236  1.00  0.00    +0.000 C 
ATOM      2 BR   UNL     1       0.961   0.554  -3.052  1.00  0.00    +0.000 Br
ENDROOT
BRANCH   1   4
ATOM      3  C   UNL     1       1.941   2.737  -0.311  1.00  0.00    +0.000 C 
ATOM      4  C   UNL     1       1.613   1.267  -0.399  1.00  0.00    +0.000 C 
ATOM      5  C   UNL     1       2.328   0.298   0.221  1.00  0.00    +0.000 C 
BRANCH   5   6
ATOM      6  C   UNL     1       3.552   0.427   1.078  1.00  0.00    +0.000 C 
ATOM      7 CL   UNL     1       3.144  -0.066   2.739  1.00  0.00    +0.000 Cl
ATOM      8 CL   UNL     1       4.837  -0.621   0.433  1.00  0.00    +0.000 Cl
ENDBRANCH   5   6
ENDBRANCH   1   4
BRANCH   1   9
ATOM      9  C   UNL     1      -0.482  -0.155  -0.746  1.00  0.00    +0.000 C 
ATOM     10  C   UNL     1      -1.674   0.013  -0.143  1.00  0.00    +0.000 C 
BRANCH  10  11
ATOM     11  C   UNL     1      -2.611  -1.067   0.380  1.00  0.00    +0.000 C 
ATOM     12  C   UNL     1      -2.459  -1.113   1.910  1.00  0.00    +0.000 C 
ATOM     13 CL   UNL     1      -4.303  -0.512   0.043  1.00  0.00    +0.000 Cl
BRANCH  11  14
ATOM     14  C   UNL     1      -2.422  -2.494  -0.168  1.00  0.00    +0.000 C 
ATOM     15 BR   UNL     1      -2.646  -2.646  -2.104  1.00  0.00    +0.000 Br
ENDBRANCH  11  14
ENDBRANCH  10  11
ENDBRANCH   1   9
TORSDOF 5
