REMARK  Name = /srv/my_project/app/compsite/backup/Dave/CORINA_stuff/newPDBs/SANC00463.pdb
AUTHORGENERATED BY OPEN BABEL 2.3.2
REMARK  12 active torsions:
REMARK  status: ('A' for Active; 'I' for Inactive)
REMARK    1  A    between atoms: C_2  and  O_3
REMARK    2  A    between atoms: O_3  and  C_4
REMARK    3  A    between atoms: C_7  and  C_9
REMARK    4  A    between atoms: C_10  and  O_12
REMARK    5  A    between atoms: C_13  and  O_15
REMARK    6  A    between atoms: O_15  and  C_16
REMARK    7  A    between atoms: C_17  and  O_19
REMARK    8  A    between atoms: C_20  and  C_22
REMARK    9  A    between atoms: C_24  and  O_26
REMARK   10  A    between atoms: O_26  and  C_27
REMARK   11  A    between atoms: C_29  and  O_31
REMARK   12  A    between atoms: O_31  and  C_32
REMARK                            x       y       z     vdW  Elec       q    Type
REMARK                         _______ _______ _______ _____ _____    ______ ____
ROOT
ATOM      1  C   UNL     1      -1.064  -0.746   0.992  1.00  0.00    +0.000 C 
ATOM      2  O   UNL     1      -1.705  -2.018   0.884  1.00  0.00    +0.000 OA
ATOM      3  C   UNL     1      -2.518  -2.201  -0.281  1.00  0.00    +0.000 C 
ATOM      4  C   UNL     1      -1.799  -3.113  -1.270  1.00  0.00    +0.000 C 
ATOM      5  C   UNL     1      -2.976  -0.897  -0.946  1.00  0.00    +0.000 C 
ATOM      6  C   UNL     1      -3.318   0.135   0.132  1.00  0.00    +0.000 C 
ATOM      7  C   UNL     1      -2.087   0.423   1.012  1.00  0.00    +0.000 C 
ENDROOT
BRANCH   5   8
ATOM      8  O   UNL     1      -4.126  -1.135  -1.769  1.00  0.00    +0.000 OA
ATOM      9  H   UNL     1      -4.453  -0.247  -2.013  1.00  0.00    +0.000 HD
ENDBRANCH   5   8
BRANCH   6  10
ATOM     10  O   UNL     1      -3.769   1.317  -0.570  1.00  0.00    +0.000 OA
ATOM     11  C   UNL     1      -4.497   2.232   0.236  1.00  0.00    +0.000 C 
ENDBRANCH   6  10
BRANCH   7  12
ATOM     12  O   UNL     1      -2.512   0.643   2.372  1.00  0.00    +0.000 OA
ATOM     13  H   UNL     1      -3.055   1.447   2.394  1.00  0.00    +0.000 HD
ENDBRANCH   7  12
BRANCH   1  14
ATOM     14  O   UNL     1      -0.114  -0.597  -0.065  1.00  0.00    +0.000 OA
BRANCH  14  15
ATOM     15  C   UNL     1       1.013   0.217   0.279  1.00  0.00    +0.000 C 
ATOM     16  C   UNL     1       1.670   0.772  -1.000  1.00  0.00    +0.000 C 
ATOM     17  C   UNL     1       0.677   1.568  -1.842  1.00  0.00    +0.000 C 
ATOM     18  O   UNL     1       2.736   1.665  -0.649  1.00  0.00    +0.000 OA
ATOM     19  C   UNL     1       3.784   1.008   0.065  1.00  0.00    +0.000 C 
ATOM     20  C   UNL     1       3.248   0.425   1.373  1.00  0.00    +0.000 C 
ATOM     21  C   UNL     1       2.089  -0.534   1.104  1.00  0.00    +0.000 C 
BRANCH  19  22
ATOM     22  O   UNL     1       4.802   1.948   0.414  1.00  0.00    +0.000 OA
ATOM     23  C   UNL     1       5.480   2.444  -0.732  1.00  0.00    +0.000 C 
ENDBRANCH  19  22
BRANCH  21  24
ATOM     24  O   UNL     1       2.659  -1.665   0.426  1.00  0.00    +0.000 OA
ATOM     25  C   UNL     1       1.829  -2.818   0.408  1.00  0.00    +0.000 C 
ENDBRANCH  21  24
ENDBRANCH  14  15
ENDBRANCH   1  14
TORSDOF 7
