REMARK  Name = /srv/my_project/app/compsite/backup/Dave/CORINA_stuff/newPDBs/SANC00548.pdb
AUTHORGENERATED BY OPEN BABEL 2.3.2
REMARK  21 active torsions:
REMARK  status: ('A' for Active; 'I' for Inactive)
REMARK    1  A    between atoms: C_2  and  C_3
REMARK    2  A    between atoms: C_3  and  C_5
REMARK    3  A    between atoms: C_3  and  C_6
REMARK    4  A    between atoms: C_6  and  C_7
REMARK    5  A    between atoms: C_7  and  C_8
REMARK    6  A    between atoms: C_8  and  O_10
REMARK    7  A    between atoms: C_8  and  C_11
REMARK    8  A    between atoms: C_11  and  C_12
REMARK    9  A    between atoms: C_11  and  C_13
REMARK   10  A    between atoms: C_11  and  O_14
REMARK   11  A    between atoms: O_14  and  C_15
REMARK   12  A    between atoms: C_18  and  C_20
REMARK   13  A    between atoms: C_20  and  O_21
REMARK   14  A    between atoms: C_22  and  O_24
REMARK   15  A    between atoms: C_25  and  O_27
REMARK   16  A    between atoms: C_28  and  O_30
REMARK   17  A    between atoms: C_33  and  C_34
REMARK   18  A    between atoms: C_35  and  C_36
REMARK   19  A    between atoms: C_46  and  C_47
REMARK   20  A    between atoms: C_46  and  C_48
REMARK   21  A    between atoms: C_52  and  O_54
REMARK                            x       y       z     vdW  Elec       q    Type
REMARK                         _______ _______ _______ _____ _____    ______ ____
ROOT
ATOM      1  C   UNL     1       0.688  -0.212   1.281  1.00  0.00    +0.000 C 
ATOM      2  C   UNL     1       1.198   1.057   0.596  1.00  0.00    +0.000 C 
ENDROOT
BRANCH   1   3
ATOM      3  C   UNL     1      -0.557  -0.817   0.568  1.00  0.00    +0.000 C 
ATOM      4  C   UNL     1      -1.049  -2.122   1.246  1.00  0.00    +0.000 C 
ATOM      5  C   UNL     1      -2.574  -2.191   1.070  1.00  0.00    +0.000 C 
ATOM      6  C   UNL     1      -2.925  -1.084   0.056  1.00  0.00    +0.000 C 
ATOM      7  C   UNL     1      -2.724  -1.702  -1.362  1.00  0.00    +0.000 C 
ATOM      8  C   UNL     1      -1.874   0.021   0.444  1.00  0.00    +0.000 C 
ATOM      9  C   UNL     1      -2.165   0.721   1.806  1.00  0.00    +0.000 C 
ATOM     10  C   UNL     1      -1.880   1.095  -0.647  1.00  0.00    +0.000 C 
ATOM     11  C   UNL     1      -3.267   1.444  -1.208  1.00  0.00    +0.000 C 
ATOM     12  C   UNL     1      -4.503   0.898  -0.484  1.00  0.00    +0.000 C 
ATOM     13  C   UNL     1      -5.329   1.898   0.302  1.00  0.00    +0.000 C 
ATOM     14  C   UNL     1      -5.913   1.363  -0.992  1.00  0.00    +0.000 C 
ATOM     15  C   UNL     1      -6.074   2.393  -2.093  1.00  0.00    +0.000 C 
ATOM     16  O   UNL     1      -5.155   2.820  -2.779  1.00  0.00    +0.000 OA
ATOM     17  C   UNL     1      -7.451   2.897  -2.291  1.00  0.00    +0.000 C 
ATOM     18  C   UNL     1      -8.509   2.322  -1.704  1.00  0.00    +0.000 C 
ATOM     19  C   UNL     1      -8.458   1.085  -0.818  1.00  0.00    +0.000 C 
ATOM     20  C   UNL     1      -9.589   0.138  -1.276  1.00  0.00    +0.000 C 
ATOM     21  C   UNL     1      -8.765   1.535   0.622  1.00  0.00    +0.000 C 
ATOM     22  C   UNL     1      -7.075   0.357  -0.964  1.00  0.00    +0.000 C 
ATOM     23  C   UNL     1      -6.860  -0.811  -0.002  1.00  0.00    +0.000 C 
ATOM     24  C   UNL     1      -5.497  -1.457  -0.243  1.00  0.00    +0.000 C 
ATOM     25  C   UNL     1      -4.364  -0.500   0.187  1.00  0.00    +0.000 C 
BRANCH  24  26
ATOM     26  O   UNL     1      -5.457  -2.672   0.505  1.00  0.00    +0.000 OA
ATOM     27  H   UNL     1      -5.518  -2.448   1.449  1.00  0.00    +0.000 HD
ENDBRANCH  24  26
ENDBRANCH   1   3
BRANCH   1  28
ATOM     28  C   UNL     1       1.850  -1.231   1.465  1.00  0.00    +0.000 C 
BRANCH  28  29
ATOM     29  C   UNL     1       2.466  -1.825   0.186  1.00  0.00    +0.000 C 
BRANCH  29  30
ATOM     30  C   UNL     1       3.698  -1.068  -0.339  1.00  0.00    +0.000 C 
BRANCH  30  31
ATOM     31  C   UNL     1       5.108  -1.600   0.100  1.00  0.00    +0.000 C 
ATOM     32  C   UNL     1       5.220  -1.651   1.629  1.00  0.00    +0.000 C 
ATOM     33  C   UNL     1       5.394  -2.985  -0.512  1.00  0.00    +0.000 C 
BRANCH  31  34
ATOM     34  O   UNL     1       6.024  -0.629  -0.477  1.00  0.00    +0.000 OA
BRANCH  34  35
ATOM     35  C   UNL     1       7.407  -0.721  -0.107  1.00  0.00    +0.000 C 
ATOM     36  O   UNL     1       7.654   0.040   1.080  1.00  0.00    +0.000 OA
ATOM     37  C   UNL     1       7.865   1.450   0.925  1.00  0.00    +0.000 C 
ATOM     38  C   UNL     1       8.964   1.783  -0.106  1.00  0.00    +0.000 C 
ATOM     39  C   UNL     1       9.465   0.524  -0.813  1.00  0.00    +0.000 C 
ATOM     40  C   UNL     1       8.280  -0.290  -1.306  1.00  0.00    +0.000 C 
BRANCH  38  41
ATOM     41  O   UNL     1      10.108   2.386   0.530  1.00  0.00    +0.000 OA
ATOM     42  H   UNL     1       9.826   3.248   0.883  1.00  0.00    +0.000 HD
ENDBRANCH  38  41
BRANCH  39  43
ATOM     43  O   UNL     1      10.294   0.884  -1.932  1.00  0.00    +0.000 OA
ATOM     44  H   UNL     1      10.966   1.491  -1.561  1.00  0.00    +0.000 HD
ENDBRANCH  39  43
BRANCH  40  45
ATOM     45  O   UNL     1       8.759  -1.438  -2.029  1.00  0.00    +0.000 OA
ATOM     46  H   UNL     1       9.461  -1.086  -2.614  1.00  0.00    +0.000 HD
ENDBRANCH  40  45
BRANCH  37  47
ATOM     47  C   UNL     1       6.548   2.199   0.661  1.00  0.00    +0.000 C 
BRANCH  47  48
ATOM     48  O   UNL     1       6.089   2.035  -0.675  1.00  0.00    +0.000 OA
ATOM     49  H   UNL     1       5.738   1.122  -0.734  1.00  0.00    +0.000 HD
ENDBRANCH  47  48
ENDBRANCH  37  47
ENDBRANCH  34  35
ENDBRANCH  31  34
ENDBRANCH  30  31
BRANCH  30  50
ATOM     50  O   UNL     1       3.627  -1.085  -1.776  1.00  0.00    +0.000 OA
ATOM     51  H   UNL     1       4.473  -0.719  -2.095  1.00  0.00    +0.000 HD
ENDBRANCH  30  50
ENDBRANCH  29  30
ENDBRANCH  28  29
ENDBRANCH   1  28
TORSDOF 14
