REMARK  Name = SANCDB_00899_minRM1.pdb
AUTHORGENERATED BY OPEN BABEL 2.3.2
REMARK  1 active torsions:
REMARK  status: ('A' for Active; 'I' for Inactive)
REMARK    1  A    between atoms: C_1  and  N_2
REMARK                            x       y       z     vdW  Elec       q    Type
REMARK                         _______ _______ _______ _____ _____    ______ ____
ROOT
ATOM      1  C   UNL     1      -2.157  -2.752   0.219  1.00  0.00    +0.000 C 
ATOM      2  N   UNL     1      -2.000  -1.320   0.489  1.00  0.00    +0.000 NA
ATOM      3  C   UNL     1      -3.078  -0.581  -0.189  1.00  0.00    +0.000 C 
ATOM      4  C   UNL     1      -3.084   0.887   0.238  1.00  0.00    +0.000 C 
ATOM      5  C   UNL     1      -1.727   1.523   0.114  1.00  0.00    +0.000 A 
ATOM      6  C   UNL     1      -0.569   0.721   0.063  1.00  0.00    +0.000 A 
ATOM      7  C   UNL     1      -0.676  -0.810   0.026  1.00  0.00    +0.000 C 
ATOM      8  C   UNL     1       0.491  -1.405   0.853  1.00  0.00    +0.000 C 
ATOM      9  C   UNL     1       1.827  -0.881   0.370  1.00  0.00    +0.000 A 
ATOM     10  C   UNL     1       2.957  -1.714   0.388  1.00  0.00    +0.000 A 
ATOM     11  C   UNL     1       4.185  -1.238  -0.060  1.00  0.00    +0.000 A 
ATOM     12  C   UNL     1       4.291   0.069  -0.523  1.00  0.00    +0.000 A 
ATOM     13  C   UNL     1       3.172   0.907  -0.524  1.00  0.00    +0.000 A 
ATOM     14  C   UNL     1       1.922   0.459  -0.063  1.00  0.00    +0.000 A 
ATOM     15  C   UNL     1       0.715   1.319  -0.017  1.00  0.00    +0.000 A 
ATOM     16  C   UNL     1       0.789   2.724  -0.008  1.00  0.00    +0.000 A 
ATOM     17  C   UNL     1      -0.360   3.514   0.056  1.00  0.00    +0.000 A 
ATOM     18  C   UNL     1      -1.613   2.916   0.119  1.00  0.00    +0.000 A 
ENDROOT
TORSDOF 0
