REMARK  Name = /srv/my_project/app/compsite/backup/Dave/CORINA_stuff/newPDBs/SANC00487.pdb
AUTHORGENERATED BY OPEN BABEL 2.3.2
REMARK  19 active torsions:
REMARK  status: ('A' for Active; 'I' for Inactive)
REMARK    1  A    between atoms: C_1  and  C_2
REMARK    2  A    between atoms: C_5  and  O_13
REMARK    3  A    between atoms: C_8  and  C_10
REMARK    4  A    between atoms: C_8  and  C_11
REMARK    5  A    between atoms: C_11  and  O_12
REMARK    6  A    between atoms: C_17  and  O_84
REMARK    7  A    between atoms: C_18  and  C_83
REMARK    8  A    between atoms: C_19  and  O_82
REMARK    9  A    between atoms: C_32  and  C_81
REMARK   10  A    between atoms: C_39  and  O_80
REMARK   11  A    between atoms: C_41  and  C_79
REMARK   12  A    between atoms: C_51  and  O_75
REMARK   13  A    between atoms: C_53  and  C_74
REMARK   14  A    between atoms: C_58  and  O_73
REMARK   15  A    between atoms: C_59  and  C_72
REMARK   16  A    between atoms: C_63  and  O_71
REMARK   17  A    between atoms: C_66  and  C_68
REMARK   18  A    between atoms: C_66  and  C_69
REMARK   19  A    between atoms: C_69  and  O_70
REMARK                            x       y       z     vdW  Elec       q    Type
REMARK                         _______ _______ _______ _____ _____    ______ ____
ROOT
ATOM      1  C   UNL     1     -11.690   0.082  -1.683  1.00  0.00    +0.000 C 
ATOM      2  C   UNL     1     -10.870  -0.335  -0.466  1.00  0.00    +0.000 C 
ATOM      3  C   UNL     1     -11.655  -0.308   0.848  1.00  0.00    +0.000 C 
ATOM      4  C   UNL     1     -12.575   0.901   1.126  1.00  0.00    +0.000 C 
ATOM      5  C   UNL     1     -13.417   0.353   2.259  1.00  0.00    +0.000 C 
ATOM      6  C   UNL     1     -13.609  -1.110   1.847  1.00  0.00    +0.000 C 
ATOM      7  O   UNL     1     -12.534  -1.444   0.925  1.00  0.00    +0.000 OA
ATOM      8  C   UNL     1     -13.517  -2.054   3.046  1.00  0.00    +0.000 C 
ATOM      9  O   UNL     1     -10.652  -0.425   1.867  1.00  0.00    +0.000 OA
ATOM     10  C   UNL     1      -9.472   0.207   1.379  1.00  0.00    +0.000 C 
ATOM     11  C   UNL     1      -9.643   0.528  -0.130  1.00  0.00    +0.000 C 
ATOM     12  C   UNL     1      -8.247   0.155  -0.760  1.00  0.00    +0.000 C 
ATOM     13  C   UNL     1      -7.273   1.361  -0.856  1.00  0.00    +0.000 C 
ATOM     14  C   UNL     1      -5.830   0.926  -1.191  1.00  0.00    +0.000 C 
ATOM     15  C   UNL     1      -5.274  -0.140  -0.207  1.00  0.00    +0.000 C 
ATOM     16  C   UNL     1      -6.264  -1.329   0.003  1.00  0.00    +0.000 C 
ATOM     17  C   UNL     1      -7.628  -0.755   0.285  1.00  0.00    +0.000 C 
ATOM     18  C   UNL     1      -8.329  -0.750   1.428  1.00  0.00    +0.000 C 
ATOM     19  C   UNL     1      -5.743  -2.279   1.093  1.00  0.00    +0.000 C 
ATOM     20  C   UNL     1      -4.336  -2.783   0.785  1.00  0.00    +0.000 C 
ATOM     21  C   UNL     1      -3.361  -1.616   0.578  1.00  0.00    +0.000 C 
ATOM     22  C   UNL     1      -3.819  -0.638  -0.551  1.00  0.00    +0.000 C 
ATOM     23  C   UNL     1      -2.832   0.563  -0.546  1.00  0.00    +0.000 C 
ATOM     24  C   UNL     1      -1.375   0.189  -0.464  1.00  0.00    +0.000 A 
ATOM     25  C   UNL     1      -0.955  -1.056   0.001  1.00  0.00    +0.000 A 
ATOM     26  C   UNL     1      -1.933  -2.139   0.357  1.00  0.00    +0.000 C 
ATOM     27  N   UNL     1       0.361  -1.371   0.099  1.00  0.00    +0.000 NA
ATOM     28  C   UNL     1       1.249  -0.411  -0.276  1.00  0.00    +0.000 A 
ATOM     29  C   UNL     1       2.713  -0.755  -0.110  1.00  0.00    +0.000 C 
ATOM     30  C   UNL     1       3.709   0.209  -0.834  1.00  0.00    +0.000 C 
ATOM     31  C   UNL     1       3.228   1.672  -0.564  1.00  0.00    +0.000 C 
ATOM     32  C   UNL     1       4.189   2.731  -1.125  1.00  0.00    +0.000 C 
ATOM     33  C   UNL     1       5.601   2.550  -0.580  1.00  0.00    +0.000 C 
ATOM     34  C   UNL     1       6.144   1.138  -0.847  1.00  0.00    +0.000 C 
ATOM     35  C   UNL     1       5.174   0.065  -0.262  1.00  0.00    +0.000 C 
ATOM     36  C   UNL     1       5.752  -1.371  -0.368  1.00  0.00    +0.000 C 
ATOM     37  C   UNL     1       7.195  -1.476   0.168  1.00  0.00    +0.000 C 
ATOM     38  C   UNL     1       8.158  -0.466  -0.515  1.00  0.00    +0.000 C 
ATOM     39  C   UNL     1       7.520   0.891  -0.282  1.00  0.00    +0.000 C 
ATOM     40  C   UNL     1       8.225   1.631   0.585  1.00  0.00    +0.000 C 
ATOM     41  C   UNL     1       9.405   0.900   1.130  1.00  0.00    +0.000 C 
ATOM     42  C   UNL     1       9.556  -0.346   0.214  1.00  0.00    +0.000 C 
ATOM     43  C   UNL     1      10.800   0.049  -0.600  1.00  0.00    +0.000 C 
ATOM     44  C   UNL     1      11.579   0.925   0.396  1.00  0.00    +0.000 C 
ATOM     45  O   UNL     1      10.559   1.727   1.001  1.00  0.00    +0.000 OA
ATOM     46  C   UNL     1      12.427   0.186   1.474  1.00  0.00    +0.000 C 
ATOM     47  C   UNL     1      13.849   0.396   0.993  1.00  0.00    +0.000 C 
ATOM     48  C   UNL     1      13.777   1.726   0.247  1.00  0.00    +0.000 C 
ATOM     49  O   UNL     1      12.474   1.760  -0.366  1.00  0.00    +0.000 OA
ATOM     50  C   UNL     1      13.909   2.945   1.169  1.00  0.00    +0.000 C 
ATOM     51  C   UNL     1      11.613  -1.090  -1.210  1.00  0.00    +0.000 C 
ATOM     52  C   UNL     1       8.316  -0.793  -2.015  1.00  0.00    +0.000 C 
ATOM     53  C   UNL     1       1.803   1.924  -1.084  1.00  0.00    +0.000 C 
ATOM     54  C   UNL     1       0.830   0.847  -0.699  1.00  0.00    +0.000 A 
ATOM     55  N   UNL     1      -0.487   1.154  -0.810  1.00  0.00    +0.000 NA
ATOM     56  C   UNL     1       3.675  -0.125  -2.351  1.00  0.00    +0.000 C 
ATOM     57  C   UNL     1      -3.775  -1.308  -1.949  1.00  0.00    +0.000 C 
ATOM     58  C   UNL     1      -8.404  -0.529  -2.134  1.00  0.00    +0.000 C 
ENDROOT
BRANCH   4  59
ATOM     59  O   UNL     1     -11.948   2.115   1.502  1.00  0.00    +0.000 OA
ATOM     60  H   UNL     1     -11.270   2.312   0.819  1.00  0.00    +0.000 HD
ENDBRANCH   4  59
BRANCH  46  61
ATOM     61  O   UNL     1      12.310   0.754   2.784  1.00  0.00    +0.000 OA
ATOM     62  H   UNL     1      12.717   0.133   3.410  1.00  0.00    +0.000 HD
ENDBRANCH  46  61
BRANCH  42  63
ATOM     63  O   UNL     1       9.856  -1.508   0.998  1.00  0.00    +0.000 OA
ATOM     64  H   UNL     1       9.422  -2.272   0.560  1.00  0.00    +0.000 HD
ENDBRANCH  42  63
BRANCH  37  65
ATOM     65  O   UNL     1       7.685  -2.809  -0.023  1.00  0.00    +0.000 OA
ATOM     66  H   UNL     1       7.036  -3.410   0.389  1.00  0.00    +0.000 HD
ENDBRANCH  37  65
BRANCH  29  67
ATOM     67  O   UNL     1       2.979  -0.799   1.299  1.00  0.00    +0.000 OA
ATOM     68  H   UNL     1       2.178  -1.183   1.706  1.00  0.00    +0.000 HD
ENDBRANCH  29  67
BRANCH  13  69
ATOM     69  O   UNL     1      -7.750   2.280  -1.844  1.00  0.00    +0.000 OA
ATOM     70  H   UNL     1      -7.080   2.983  -1.934  1.00  0.00    +0.000 HD
ENDBRANCH  13  69
BRANCH  11  71
ATOM     71  O   UNL     1      -9.982   1.912  -0.308  1.00  0.00    +0.000 OA
ATOM     72  H   UNL     1      -9.507   2.223  -1.113  1.00  0.00    +0.000 HD
ENDBRANCH  11  71
BRANCH   6  73
ATOM     73  C   UNL     1     -14.928  -1.313   1.077  1.00  0.00    +0.000 C 
BRANCH  73  74
ATOM     74  O   UNL     1     -15.020  -2.646   0.575  1.00  0.00    +0.000 OA
ATOM     75  H   UNL     1     -14.122  -2.869   0.261  1.00  0.00    +0.000 HD
ENDBRANCH  73  74
ENDBRANCH   6  73
BRANCH  48  76
ATOM     76  C   UNL     1      14.823   1.788  -0.881  1.00  0.00    +0.000 C 
BRANCH  76  77
ATOM     77  O   UNL     1      14.650   2.962  -1.674  1.00  0.00    +0.000 OA
ATOM     78  H   UNL     1      13.683   3.066  -1.774  1.00  0.00    +0.000 HD
ENDBRANCH  76  77
ENDBRANCH  48  76
TORSDOF 11
