REMARK  Name = /srv/my_project/app/compsite/backup/Dave/CORINA_stuff/newPDBs/SANC00575.pdb
AUTHORGENERATED BY OPEN BABEL 2.3.2
REMARK  10 active torsions:
REMARK  status: ('A' for Active; 'I' for Inactive)
REMARK    1  A    between atoms: C_1  and  O_2
REMARK    2  A    between atoms: O_2  and  C_3
REMARK    3  A    between atoms: C_5  and  C_6
REMARK    4  A    between atoms: C_6  and  C_7
REMARK    5  A    between atoms: C_13  and  O_14
REMARK    6  A    between atoms: O_14  and  C_15
REMARK    7  A    between atoms: C_16  and  O_17
REMARK    8  A    between atoms: C_18  and  O_19
REMARK    9  A    between atoms: O_19  and  C_20
REMARK   10  A    between atoms: C_26  and  O_27
REMARK                            x       y       z     vdW  Elec       q    Type
REMARK                         _______ _______ _______ _____ _____    ______ ____
ROOT
ATOM      1  C   UNL     1       0.394  -1.578  -0.177  1.00  0.00    +0.000 C 
ATOM      2  C   UNL     1       0.388  -0.721  -1.432  1.00  0.00    +0.000 C 
ATOM      3  O   UNL     1      -0.265   0.530  -1.202  1.00  0.00    +0.000 OA
ATOM      4  C   UNL     1      -1.575   0.356  -0.826  1.00  0.00    +0.000 A 
ATOM      5  C   UNL     1      -2.432   1.419  -1.131  1.00  0.00    +0.000 A 
ATOM      6  C   UNL     1      -3.785   1.329  -0.817  1.00  0.00    +0.000 A 
ATOM      7  C   UNL     1      -4.260   0.170  -0.187  1.00  0.00    +0.000 A 
ATOM      8  C   UNL     1      -3.402  -0.883   0.155  1.00  0.00    +0.000 A 
ATOM      9  C   UNL     1      -2.042  -0.788  -0.163  1.00  0.00    +0.000 A 
ATOM     10  C   UNL     1      -1.044  -1.825   0.225  1.00  0.00    +0.000 C 
ATOM     11  O   UNL     1      -1.336  -2.802   0.906  1.00  0.00    +0.000 OA
ENDROOT
BRANCH   6  12
ATOM     12  O   UNL     1      -4.739   2.280  -1.076  1.00  0.00    +0.000 OA
ATOM     13  C   UNL     1      -4.299   3.469  -1.724  1.00  0.00    +0.000 C 
ENDBRANCH   6  12
BRANCH   7  14
ATOM     14  O   UNL     1      -5.602   0.075   0.093  1.00  0.00    +0.000 OA
ATOM     15  H   UNL     1      -6.002   0.892  -0.260  1.00  0.00    +0.000 HD
ENDBRANCH   7  14
BRANCH   8  16
ATOM     16  O   UNL     1      -3.919  -2.026   0.706  1.00  0.00    +0.000 OA
ATOM     17  C   UNL     1      -4.141  -1.861   2.106  1.00  0.00    +0.000 C 
ENDBRANCH   8  16
BRANCH   1  18
ATOM     18  C   UNL     1       1.125  -0.947   1.017  1.00  0.00    +0.000 C 
BRANCH  18  21
ATOM     19  C   UNL     1       4.509   0.642   0.251  1.00  0.00    +0.000 A 
ATOM     20  C   UNL     1       3.142   0.489   0.486  1.00  0.00    +0.000 A 
ATOM     21  C   UNL     1       2.608  -0.779   0.783  1.00  0.00    +0.000 A 
ATOM     22  C   UNL     1       3.461  -1.891   0.843  1.00  0.00    +0.000 A 
ATOM     23  C   UNL     1       4.826  -1.744   0.609  1.00  0.00    +0.000 A 
ATOM     24  C   UNL     1       5.334  -0.486   0.316  1.00  0.00    +0.000 A 
BRANCH  19  26
ATOM     25  C   UNL     1       4.350   2.987  -0.104  1.00  0.00    +0.000 C 
ATOM     26  O   UNL     1       5.154   1.814  -0.051  1.00  0.00    +0.000 OA
ENDBRANCH  19  26
BRANCH  24  27
ATOM     27  O   UNL     1       6.679  -0.369   0.087  1.00  0.00    +0.000 OA
ATOM     28  H   UNL     1       6.821   0.581  -0.088  1.00  0.00    +0.000 HD
ENDBRANCH  24  27
ENDBRANCH  18  21
ENDBRANCH   1  18
TORSDOF 7
