REMARK  Name = /srv/my_project/app/compsite/backup/Dave/CORINA_stuff/newPDBs/SANC00323.pdb
AUTHORGENERATED BY OPEN BABEL 2.3.2
REMARK  8 active torsions:
REMARK  status: ('A' for Active; 'I' for Inactive)
REMARK    1  A    between atoms: C_1  and  O_2
REMARK    2  A    between atoms: O_2  and  C_3
REMARK    3  A    between atoms: C_6  and  C_7
REMARK    4  A    between atoms: C_7  and  C_8
REMARK    5  A    between atoms: C_8  and  O_9
REMARK    6  A    between atoms: C_14  and  O_15
REMARK    7  A    between atoms: O_15  and  C_16
REMARK    8  A    between atoms: C_18  and  O_19
REMARK                            x       y       z     vdW  Elec       q    Type
REMARK                         _______ _______ _______ _____ _____    ______ ____
ROOT
ATOM      1  C   UNL     1       0.003  -1.083   0.139  1.00  0.00    +0.000 C 
ATOM      2  C   UNL     1       0.064   0.399   0.525  1.00  0.00    +0.000 C 
ATOM      3  O   UNL     1       1.263   0.753   1.229  1.00  0.00    +0.000 OA
ATOM      4  C   UNL     1       2.404   0.415   0.559  1.00  0.00    +0.000 A 
ATOM      5  C   UNL     1       3.547   1.154   0.869  1.00  0.00    +0.000 A 
ATOM      6  C   UNL     1       4.766   0.883   0.239  1.00  0.00    +0.000 A 
ATOM      7  C   UNL     1       4.837  -0.147  -0.700  1.00  0.00    +0.000 A 
ATOM      8  C   UNL     1       3.699  -0.901  -0.991  1.00  0.00    +0.000 A 
ATOM      9  C   UNL     1       2.480  -0.625  -0.361  1.00  0.00    +0.000 A 
ATOM     10  C   UNL     1       1.277  -1.436  -0.621  1.00  0.00    +0.000 C 
ATOM     11  O   UNL     1       1.356  -2.399  -1.387  1.00  0.00    +0.000 OA
ENDROOT
BRANCH   1  12
ATOM     12  O   UNL     1      -0.015  -1.910   1.311  1.00  0.00    +0.000 OA
ATOM     13  H   UNL     1      -0.001  -2.838   1.013  1.00  0.00    +0.000 HD
ENDBRANCH   1  12
BRANCH   6  14
ATOM     14  O   UNL     1       5.800   1.690   0.625  1.00  0.00    +0.000 OA
ATOM     15  C   UNL     1       7.070   1.435   0.037  1.00  0.00    +0.000 C 
ENDBRANCH   6  14
BRANCH   8  16
ATOM     16  O   UNL     1       3.855  -1.907  -1.908  1.00  0.00    +0.000 OA
ATOM     17  H   UNL     1       3.004  -2.394  -1.978  1.00  0.00    +0.000 HD
ENDBRANCH   8  16
BRANCH   1  18
ATOM     18  C   UNL     1      -1.216  -1.404  -0.762  1.00  0.00    +0.000 C 
BRANCH  18  22
ATOM     19  C   UNL     1      -5.030   0.140   0.596  1.00  0.00    +0.000 A 
ATOM     20  C   UNL     1      -4.361  -0.841   1.330  1.00  0.00    +0.000 A 
ATOM     21  C   UNL     1      -3.132  -1.345   0.897  1.00  0.00    +0.000 A 
ATOM     22  C   UNL     1      -2.547  -0.870  -0.282  1.00  0.00    +0.000 A 
ATOM     23  C   UNL     1      -3.225   0.111  -1.019  1.00  0.00    +0.000 A 
ATOM     24  C   UNL     1      -4.457   0.613  -0.583  1.00  0.00    +0.000 A 
BRANCH  19  26
ATOM     25  C   UNL     1      -6.941   1.542   0.421  1.00  0.00    +0.000 C 
ATOM     26  O   UNL     1      -6.221   0.543   1.132  1.00  0.00    +0.000 OA
ENDBRANCH  19  26
ENDBRANCH  18  22
ENDBRANCH   1  18
TORSDOF 6
