REMARK  Name = /srv/my_project/app/compsite/backup/Dave/CORINA_stuff/newPDBs/SANC00185.pdb
AUTHORGENERATED BY OPEN BABEL 2.3.2
REMARK  9 active torsions:
REMARK  status: ('A' for Active; 'I' for Inactive)
REMARK    1  A    between atoms: C_2  and  C_3
REMARK    2  A    between atoms: C_2  and  C_4
REMARK    3  A    between atoms: C_4  and  C_5
REMARK    4  A    between atoms: C_4  and  C_6
REMARK    5  A    between atoms: C_6  and  C_7
REMARK    6  A    between atoms: C_7  and  C_8
REMARK    7  A    between atoms: C_8  and  C_9
REMARK    8  A    between atoms: C_12  and  O_13
REMARK    9  A    between atoms: C_15  and  C_16
REMARK                            x       y       z     vdW  Elec       q    Type
REMARK                         _______ _______ _______ _____ _____    ______ ____
ROOT
ATOM      1  C   UNL     1       0.010  -1.098  -0.373  1.00  0.00    +0.000 C 
ATOM      2  C   UNL     1       0.332  -1.658  -1.794  1.00  0.00    +0.000 C 
ATOM      3  C   UNL     1      -0.422  -2.359   0.479  1.00  0.00    +0.000 C 
ATOM      4 CL   UNL     1       0.121  -2.336   2.214  1.00  0.00    +0.000 Cl
ATOM      5  C   UNL     1      -1.943  -2.586   0.453  1.00  0.00    +0.000 C 
ATOM      6  C   UNL     1      -2.694  -1.435   1.122  1.00  0.00    +0.000 C 
ATOM      7  C   UNL     1      -2.279  -0.032   0.602  1.00  0.00    +0.000 C 
ATOM      8  C   UNL     1      -1.717   0.761   1.820  1.00  0.00    +0.000 C 
ATOM      9  C   UNL     1      -1.216  -0.092  -0.555  1.00  0.00    +0.000 C 
ATOM     10  C   UNL     1      -0.820   1.339  -1.015  1.00  0.00    +0.000 C 
ATOM     11  C   UNL     1      -2.008   2.225  -1.266  1.00  0.00    +0.000 C 
ATOM     12  C   UNL     1      -3.221   1.926  -0.782  1.00  0.00    +0.000 C 
ATOM     13  C   UNL     1      -4.515   2.401  -1.319  1.00  0.00    +0.000 C 
ATOM     14  O   UNL     1      -5.228   1.173  -1.498  1.00  0.00    +0.000 OA
ATOM     15  C   UNL     1      -4.566   0.164  -0.831  1.00  0.00    +0.000 C 
ATOM     16  O   UNL     1      -4.836  -1.016  -0.976  1.00  0.00    +0.000 OA
ATOM     17  C   UNL     1      -3.533   0.767   0.113  1.00  0.00    +0.000 C 
ENDROOT
BRANCH   5  18
ATOM     18  O   UNL     1      -2.281  -3.812   1.107  1.00  0.00    +0.000 OA
ATOM     19  H   UNL     1      -1.890  -3.780   2.001  1.00  0.00    +0.000 HD
ENDBRANCH   5  18
BRANCH   1  20
ATOM     20  C   UNL     1       1.326  -0.457   0.199  1.00  0.00    +0.000 C 
BRANCH  20  21
ATOM     21  C   UNL     1       2.273   0.294  -0.760  1.00  0.00    +0.000 C 
BRANCH  21  22
ATOM     22  C   UNL     1       3.417   1.024  -0.015  1.00  0.00    +0.000 C 
ATOM     23  C   UNL     1       4.235   1.871  -0.999  1.00  0.00    +0.000 C 
BRANCH  22  25
ATOM     24  C   UNL     1       5.058  -0.880   0.214  1.00  0.00    +0.000 C 
ATOM     25  C   UNL     1       4.319   0.090   0.781  1.00  0.00    +0.000 C 
ATOM     26  C   UNL     1       4.340   0.310   2.269  1.00  0.00    +0.000 C 
ENDBRANCH  22  25
ENDBRANCH  21  22
ENDBRANCH  20  21
ENDBRANCH   1  20
TORSDOF 5
