REMARK  Name = /srv/my_project/app/compsite/backup/Dave/CORINA_stuff/newPDBs/SANC00102.pdb
AUTHORGENERATED BY OPEN BABEL 2.3.2
REMARK  13 active torsions:
REMARK  status: ('A' for Active; 'I' for Inactive)
REMARK    1  A    between atoms: C_1  and  C_2
REMARK    2  A    between atoms: C_2  and  C_3
REMARK    3  A    between atoms: C_3  and  C_5
REMARK    4  A    between atoms: C_3  and  C_35
REMARK    5  A    between atoms: C_5  and  C_6
REMARK    6  A    between atoms: C_6  and  C_7
REMARK    7  A    between atoms: C_7  and  C_9
REMARK    8  A    between atoms: C_7  and  C_10
REMARK    9  A    between atoms: C_16  and  C_34
REMARK   10  A    between atoms: C_26  and  C_33
REMARK   11  A    between atoms: C_29  and  O_32
REMARK   12  A    between atoms: C_35  and  C_36
REMARK   13  A    between atoms: C_35  and  C_37
REMARK                            x       y       z     vdW  Elec       q    Type
REMARK                         _______ _______ _______ _____ _____    ______ ____
ROOT
ATOM      1  C   UNL     1      -0.920   1.873  -0.571  1.00  0.00    +0.000 C 
ATOM      2  C   UNL     1      -1.139   2.368   0.880  1.00  0.00    +0.000 C 
ATOM      3  C   UNL     1       0.133   1.972   1.659  1.00  0.00    +0.000 C 
ATOM      4  C   UNL     1       1.079   1.440   0.584  1.00  0.00    +0.000 C 
ATOM      5  C   UNL     1       0.128   0.733  -0.415  1.00  0.00    +0.000 C 
ATOM      6  C   UNL     1       0.937   0.424  -1.682  1.00  0.00    +0.000 C 
ATOM      7  C   UNL     1       2.171  -0.438  -1.363  1.00  0.00    +0.000 C 
ATOM      8  C   UNL     1       3.084   0.165  -0.259  1.00  0.00    +0.000 C 
ATOM      9  C   UNL     1       2.283   0.591   1.006  1.00  0.00    +0.000 C 
ATOM     10  C   UNL     1       3.190   1.376   1.966  1.00  0.00    +0.000 C 
ATOM     11  C   UNL     1       4.540   0.757   2.143  1.00  0.00    +0.000 C 
ATOM     12  C   UNL     1       5.058  -0.197   1.347  1.00  0.00    +0.000 C 
ATOM     13  C   UNL     1       4.330  -0.738   0.109  1.00  0.00    +0.000 C 
ATOM     14  C   UNL     1       5.296  -0.773  -1.123  1.00  0.00    +0.000 C 
ATOM     15  C   UNL     1       6.742  -0.360  -0.827  1.00  0.00    +0.000 C 
ATOM     16  C   UNL     1       7.285  -1.058   0.413  1.00  0.00    +0.000 C 
ATOM     17  C   UNL     1       6.431  -0.769   1.656  1.00  0.00    +0.000 C 
ATOM     18  C   UNL     1       3.884  -2.184   0.441  1.00  0.00    +0.000 C 
ATOM     19  C   UNL     1      -0.461  -0.573   0.168  1.00  0.00    +0.000 C 
ENDROOT
BRANCH   1  20
ATOM     20  C   UNL     1      -2.153   1.740  -1.502  1.00  0.00    +0.000 C 
ATOM     21  C   UNL     1      -2.978   3.039  -1.478  1.00  0.00    +0.000 C 
BRANCH  20  22
ATOM     22  C   UNL     1      -3.090   0.519  -1.412  1.00  0.00    +0.000 C 
BRANCH  22  23
ATOM     23  C   UNL     1      -3.906   0.361  -0.126  1.00  0.00    +0.000 C 
BRANCH  23  24
ATOM     24  C   UNL     1      -4.717  -0.961  -0.043  1.00  0.00    +0.000 C 
BRANCH  24  25
ATOM     25  C   UNL     1      -5.662  -1.184  -1.265  1.00  0.00    +0.000 C 
ATOM     26  C   UNL     1      -6.321  -2.570  -1.248  1.00  0.00    +0.000 C 
ATOM     27  C   UNL     1      -6.738  -0.106  -1.419  1.00  0.00    +0.000 C 
ENDBRANCH  24  25
BRANCH  24  29
ATOM     28  C   UNL     1      -4.554  -1.060   2.530  1.00  0.00    +0.000 C 
ATOM     29  C   UNL     1      -5.469  -1.050   1.310  1.00  0.00    +0.000 C 
ENDBRANCH  24  29
ENDBRANCH  23  24
ENDBRANCH  22  23
ENDBRANCH  20  22
ENDBRANCH   1  20
BRANCH  16  30
ATOM     30  O   UNL     1       7.330  -2.469   0.184  1.00  0.00    +0.000 OA
ATOM     31  H   UNL     1       7.882  -2.619  -0.602  1.00  0.00    +0.000 HD
ENDBRANCH  16  30
TORSDOF 7
