REMARK  Name = SANCDB_01042_minRM1.pdb
AUTHORGENERATED BY OPEN BABEL 2.3.2
REMARK  12 active torsions:
REMARK  status: ('A' for Active; 'I' for Inactive)
REMARK    1  A    between atoms: C_1  and  O_2
REMARK    2  A    between atoms: O_2  and  C_3
REMARK    3  A    between atoms: C_5  and  C_12
REMARK    4  A    between atoms: C_7  and  O_10
REMARK    5  A    between atoms: C_8  and  O_9
REMARK    6  A    between atoms: O_10  and  C_11
REMARK    7  A    between atoms: C_16  and  C_20
REMARK    8  A    between atoms: C_22  and  O_29
REMARK    9  A    between atoms: C_23  and  O_28
REMARK   10  A    between atoms: C_24  and  O_26
REMARK   11  A    between atoms: O_26  and  C_27
REMARK   12  A    between atoms: O_29  and  C_30
REMARK                            x       y       z     vdW  Elec       q    Type
REMARK                         _______ _______ _______ _____ _____    ______ ____
ROOT
ATOM      1  C   UNL     1       1.527  -0.929  -0.941  1.00  0.00    +0.000 C 
ATOM      2  C   UNL     1       0.300  -0.231  -0.380  1.00  0.00    +0.000 C 
ATOM      3  C   UNL     1       0.378   1.282  -0.257  1.00  0.00    +0.000 C 
ATOM      4  O   UNL     1      -0.925   1.789  -0.586  1.00  0.00    +0.000 OA
ATOM      5  C   UNL     1      -1.666   0.773  -1.291  1.00  0.00    +0.000 C 
ATOM      6  C   UNL     1      -0.713  -0.398  -1.480  1.00  0.00    +0.000 C 
ATOM      7  C   UNL     1       0.153  -0.295  -2.728  1.00  0.00    +0.000 C 
ATOM      8  O   UNL     1       1.473  -0.734  -2.368  1.00  0.00    +0.000 OA
ENDROOT
BRANCH   1  11
ATOM      9  C   UNL     1       5.009   0.616  -0.495  1.00  0.00    +0.000 A 
ATOM     10  C   UNL     1       3.808   0.202  -1.077  1.00  0.00    +0.000 A 
ATOM     11  C   UNL     1       2.838  -0.491  -0.328  1.00  0.00    +0.000 A 
ATOM     12  C   UNL     1       3.096  -0.779   1.026  1.00  0.00    +0.000 A 
ATOM     13  C   UNL     1       4.289  -0.374   1.623  1.00  0.00    +0.000 A 
ATOM     14  C   UNL     1       5.231   0.324   0.854  1.00  0.00    +0.000 A 
BRANCH   9  16
ATOM     15  C   UNL     1       5.831   1.548  -2.530  1.00  0.00    +0.000 C 
ATOM     16  O   UNL     1       6.003   1.301  -1.142  1.00  0.00    +0.000 OA
ENDBRANCH   9  16
BRANCH  14  17
ATOM     17  O   UNL     1       6.403   0.724   1.452  1.00  0.00    +0.000 OA
ATOM     18  H   UNL     1       6.341   0.409   2.373  1.00  0.00    +0.000 HD
ENDBRANCH  14  17
BRANCH  13  19
ATOM     19  O   UNL     1       4.652  -0.590   2.929  1.00  0.00    +0.000 OA
ATOM     20  C   UNL     1       3.746  -1.335   3.733  1.00  0.00    +0.000 C 
ENDBRANCH  13  19
ENDBRANCH   1  11
BRANCH   5  21
ATOM     21  C   UNL     1      -2.914   0.379  -0.517  1.00  0.00    +0.000 A 
ATOM     22  C   UNL     1      -3.130   0.791   0.811  1.00  0.00    +0.000 A 
ATOM     23  C   UNL     1      -4.279   0.400   1.498  1.00  0.00    +0.000 A 
ATOM     24  C   UNL     1      -5.216  -0.416   0.850  1.00  0.00    +0.000 A 
ATOM     25  C   UNL     1      -5.037  -0.835  -0.473  1.00  0.00    +0.000 A 
ATOM     26  C   UNL     1      -3.883  -0.429  -1.148  1.00  0.00    +0.000 A 
BRANCH  25  27
ATOM     27  O   UNL     1      -6.023  -1.625  -1.000  1.00  0.00    +0.000 OA
ATOM     28  C   UNL     1      -5.910  -1.998  -2.365  1.00  0.00    +0.000 C 
ENDBRANCH  25  27
BRANCH  24  29
ATOM     29  O   UNL     1      -6.341  -0.803   1.539  1.00  0.00    +0.000 OA
ATOM     30  H   UNL     1      -6.256  -0.388   2.418  1.00  0.00    +0.000 HD
ENDBRANCH  24  29
BRANCH  23  31
ATOM     31  O   UNL     1      -4.598   0.735   2.790  1.00  0.00    +0.000 OA
ATOM     32  C   UNL     1      -3.732   1.658   3.442  1.00  0.00    +0.000 C 
ENDBRANCH  23  31
ENDBRANCH   5  21
TORSDOF 8
