REMARK  Name = /srv/my_project/app/compsite/backup/Dave/CORINA_stuff/newPDBs/SANC00427.pdb
AUTHORGENERATED BY OPEN BABEL 2.3.2
REMARK  33 active torsions:
REMARK  status: ('A' for Active; 'I' for Inactive)
REMARK    1  A    between atoms: C_1  and  C_2
REMARK    2  A    between atoms: C_2  and  O_4
REMARK    3  A    between atoms: C_2  and  C_5
REMARK    4  A    between atoms: C_5  and  O_7
REMARK    5  A    between atoms: C_5  and  C_8
REMARK    6  A    between atoms: C_8  and  O_10
REMARK    7  A    between atoms: C_8  and  C_11
REMARK    8  A    between atoms: C_11  and  C_12
REMARK    9  A    between atoms: C_12  and  O_14
REMARK   10  A    between atoms: C_12  and  C_37
REMARK   11  A    between atoms: O_14  and  C_15
REMARK   12  A    between atoms: C_15  and  C_17
REMARK   13  A    between atoms: C_17  and  C_18
REMARK   14  A    between atoms: C_18  and  C_19
REMARK   15  A    between atoms: C_19  and  C_20
REMARK   16  A    between atoms: C_20  and  C_21
REMARK   17  A    between atoms: C_21  and  C_22
REMARK   18  A    between atoms: C_22  and  C_23
REMARK   19  A    between atoms: C_23  and  C_24
REMARK   20  A    between atoms: C_24  and  C_25
REMARK   21  A    between atoms: C_25  and  C_26
REMARK   22  A    between atoms: C_26  and  C_27
REMARK   23  A    between atoms: C_27  and  C_28
REMARK   24  A    between atoms: C_28  and  C_29
REMARK   25  A    between atoms: C_29  and  C_30
REMARK   26  A    between atoms: C_30  and  C_31
REMARK   27  A    between atoms: C_31  and  C_32
REMARK   28  A    between atoms: C_32  and  C_33
REMARK   29  A    between atoms: C_33  and  C_34
REMARK   30  A    between atoms: C_34  and  C_35
REMARK   31  A    between atoms: C_35  and  C_36
REMARK   32  A    between atoms: C_40  and  C_41
REMARK   33  A    between atoms: C_41  and  C_42
REMARK                            x       y       z     vdW  Elec       q    Type
REMARK                         _______ _______ _______ _____ _____    ______ ____
ROOT
ATOM      1  C   UNL     1      -6.483  -1.925   0.022  1.00  0.00    +0.000 C 
ENDROOT
BRANCH   1   2
ATOM      2  C   UNL     1      -5.877  -1.138   1.144  1.00  0.00    +0.000 A 
ATOM      3  C   UNL     1      -5.486  -1.568   2.392  1.00  0.00    +0.000 A 
ATOM      4  O   UNL     1      -4.987  -0.502   3.075  1.00  0.00    +0.000 OA
ATOM      5  C   UNL     1      -5.097   0.542   2.195  1.00  0.00    +0.000 A 
ATOM      6  N   UNL     1      -5.616   0.213   1.026  1.00  0.00    +0.000 NA
BRANCH   5   7
ATOM      7  C   UNL     1      -4.598   1.867   2.659  1.00  0.00    +0.000 C 
BRANCH   7   8
ATOM      8  C   UNL     1      -5.547   2.966   2.360  1.00  0.00    +0.000 A 
ATOM      9  O   UNL     1      -5.967   3.751   3.401  1.00  0.00    +0.000 OA
ATOM     10  C   UNL     1      -6.808   4.646   2.813  1.00  0.00    +0.000 A 
ATOM     11  N   UNL     1      -6.958   4.505   1.516  1.00  0.00    +0.000 NA
ATOM     12  C   UNL     1      -6.149   3.439   1.215  1.00  0.00    +0.000 A 
ENDBRANCH   7   8
ENDBRANCH   5   7
ENDBRANCH   1   2
BRANCH   1  13
ATOM     13  O   UNL     1      -5.575  -1.984  -1.103  1.00  0.00    +0.000 OA
BRANCH  13  14
ATOM     14  C   UNL     1      -4.556  -2.873  -0.984  1.00  0.00    +0.000 C 
ATOM     15  O   UNL     1      -4.399  -3.654  -0.056  1.00  0.00    +0.000 OA
BRANCH  14  16
ATOM     16  C   UNL     1      -3.611  -2.746  -2.152  1.00  0.00    +0.000 C 
BRANCH  16  17
ATOM     17  C   UNL     1      -2.246  -2.218  -1.716  1.00  0.00    +0.000 C 
BRANCH  17  18
ATOM     18  C   UNL     1      -2.301  -0.753  -1.268  1.00  0.00    +0.000 C 
BRANCH  18  19
ATOM     19  C   UNL     1      -0.948  -0.205  -0.796  1.00  0.00    +0.000 C 
BRANCH  19  20
ATOM     20  C   UNL     1      -0.144   0.536  -1.870  1.00  0.00    +0.000 C 
BRANCH  20  21
ATOM     21  C   UNL     1       0.394  -0.306  -3.025  1.00  0.00    +0.000 C 
BRANCH  21  22
ATOM     22  C   UNL     1       1.300  -1.486  -2.656  1.00  0.00    +0.000 C 
BRANCH  22  23
ATOM     23  C   UNL     1       2.672  -1.106  -2.087  1.00  0.00    +0.000 C 
BRANCH  23  24
ATOM     24  C   UNL     1       2.695  -0.988  -0.560  1.00  0.00    +0.000 C 
BRANCH  24  25
ATOM     25  C   UNL     1       4.112  -0.879   0.016  1.00  0.00    +0.000 C 
BRANCH  25  26
ATOM     26  C   UNL     1       4.860   0.376  -0.443  1.00  0.00    +0.000 C 
BRANCH  26  27
ATOM     27  C   UNL     1       6.187   0.593   0.292  1.00  0.00    +0.000 C 
BRANCH  27  28
ATOM     28  C   UNL     1       7.213  -0.512   0.030  1.00  0.00    +0.000 C 
BRANCH  28  29
ATOM     29  C   UNL     1       8.560  -0.186   0.680  1.00  0.00    +0.000 C 
BRANCH  29  30
ATOM     30  C   UNL     1       9.578  -1.302   0.429  1.00  0.00    +0.000 C 
BRANCH  30  31
ATOM     31  C   UNL     1      10.934  -1.050   1.098  1.00  0.00    +0.000 C 
BRANCH  31  32
ATOM     32  C   UNL     1      11.999  -0.442   0.177  1.00  0.00    +0.000 C 
BRANCH  32  33
ATOM     33  C   UNL     1      11.724   0.970  -0.342  1.00  0.00    +0.000 C 
BRANCH  33  34
ATOM     34  C   UNL     1      11.655   2.020   0.767  1.00  0.00    +0.000 C 
ATOM     35  C   UNL     1      11.442   3.414   0.197  1.00  0.00    +0.000 C 
ENDBRANCH  33  34
ENDBRANCH  32  33
ENDBRANCH  31  32
ENDBRANCH  30  31
ENDBRANCH  29  30
ENDBRANCH  28  29
ENDBRANCH  27  28
ENDBRANCH  26  27
ENDBRANCH  25  26
ENDBRANCH  24  25
ENDBRANCH  23  24
ENDBRANCH  22  23
ENDBRANCH  21  22
ENDBRANCH  20  21
ENDBRANCH  19  20
ENDBRANCH  18  19
ENDBRANCH  17  18
ENDBRANCH  16  17
ENDBRANCH  14  16
ENDBRANCH  13  14
ENDBRANCH   1  13
BRANCH   1  36
ATOM     36  C   UNL     1      -7.767  -1.258  -0.505  1.00  0.00    +0.000 C 
BRANCH  36  37
ATOM     37  C   UNL     1      -8.897  -1.238   0.531  1.00  0.00    +0.000 C 
BRANCH  37  38
ATOM     38  O   UNL     1      -9.255  -2.603   0.804  1.00  0.00    +0.000 OA
ATOM     39  H   UNL     1      -9.870  -2.853   0.082  1.00  0.00    +0.000 HD
ENDBRANCH  37  38
BRANCH  37  40
ATOM     40  C   UNL     1     -10.166  -0.505   0.056  1.00  0.00    +0.000 C 
BRANCH  40  42
ATOM     41  C   UNL     1      -9.575   1.822   0.923  1.00  0.00    +0.000 C 
ATOM     42  C   UNL     1      -9.991   0.987  -0.278  1.00  0.00    +0.000 C 
BRANCH  42  43
ATOM     43  O   UNL     1     -11.259   1.460  -0.764  1.00  0.00    +0.000 OA
ATOM     44  H   UNL     1     -11.160   2.413  -0.943  1.00  0.00    +0.000 HD
ENDBRANCH  42  43
ENDBRANCH  40  42
BRANCH  40  45
ATOM     45  O   UNL     1     -10.670  -1.187  -1.112  1.00  0.00    +0.000 OA
ATOM     46  H   UNL     1     -11.364  -0.587  -1.457  1.00  0.00    +0.000 HD
ENDBRANCH  40  45
ENDBRANCH  37  40
ENDBRANCH  36  37
ENDBRANCH   1  36
TORSDOF 31
