REMARK  Name = SANCDB01130.pdb
REMARK  0 active torsions:
REMARK  status: ('A' for Active; 'I' for Inactive)
REMARK                            x       y       z     vdW  Elec       q    Type
REMARK                         _______ _______ _______ _____ _____    ______ ____
ROOT
ATOM      1  C   UNL     1      -2.848  -1.464   0.151  1.00  0.00    +0.000 C 
ATOM      2  C   UNL     1      -2.573  -0.020   0.545  1.00  0.00    +0.000 C 
ATOM      3  C   UNL     1      -1.563   0.469  -0.505  1.00  0.00    +0.000 C 
ATOM      4  C   UNL     1      -0.918   1.816  -0.252  1.00  0.00    +0.000 C 
ATOM      5  C   UNL     1      -1.361   2.705   0.655  1.00  0.00    +0.000 C 
ATOM      6  C   UNL     1       0.280   2.146  -1.114  1.00  0.00    +0.000 C 
ATOM      7  C   UNL     1       1.531   1.299  -0.833  1.00  0.00    +0.000 C 
ATOM      8  C   UNL     1       1.461   0.466   0.455  1.00  0.00    +0.000 C 
ATOM      9  C   UNL     1       0.575  -0.781   0.357  1.00  0.00    +0.000 C 
ATOM     10  O   UNL     1       1.470  -1.847  -0.044  1.00  0.00    +0.000 OA
ATOM     11  C   UNL     1       2.748  -1.567   0.316  1.00  0.00    +0.000 C 
ATOM     12  O   UNL     1       3.693  -2.329   0.254  1.00  0.00    +0.000 OA
ATOM     13  C   UNL     1       2.776  -0.162   0.767  1.00  0.00    +0.000 C 
ATOM     14  C   UNL     1       3.832   0.382   1.382  1.00  0.00    +0.000 C 
ATOM     15  C   UNL     1      -0.600  -0.736  -0.649  1.00  0.00    +0.000 C 
ATOM     16  C   UNL     1      -1.550  -1.913  -0.459  1.00  0.00    +0.000 C 
ATOM     17  C   UNL     1      -1.301  -3.178  -0.823  1.00  0.00    +0.000 C 
ENDROOT
TORSDOF 0
