REMARK  Name = /srv/my_project/app/compsite/backup/Dave/CORINA_stuff/newPDBs/SANC00201.pdb
AUTHORGENERATED BY OPEN BABEL 2.3.2
REMARK  12 active torsions:
REMARK  status: ('A' for Active; 'I' for Inactive)
REMARK    1  A    between atoms: C_10  and  O_12
REMARK    2  A    between atoms: O_12  and  C_13
REMARK    3  A    between atoms: C_13  and  C_15
REMARK    4  A    between atoms: C_15  and  C_17
REMARK    5  A    between atoms: C_17  and  O_18
REMARK    6  A    between atoms: C_20  and  C_21
REMARK    7  A    between atoms: C_20  and  C_23
REMARK    8  A    between atoms: C_23  and  O_24
REMARK    9  A    between atoms: O_24  and  C_25
REMARK   10  A    between atoms: C_25  and  C_26
REMARK   11  A    between atoms: C_28  and  C_30
REMARK   12  A    between atoms: C_30  and  C_32
REMARK                            x       y       z     vdW  Elec       q    Type
REMARK                         _______ _______ _______ _____ _____    ______ ____
ROOT
ATOM      1  C   UNL     1      -0.756  -2.197   0.079  1.00  0.00    +0.000 C 
ATOM      2  O   UNL     1      -0.773  -3.627   0.132  1.00  0.00    +0.000 OA
ATOM      3  C   UNL     1       0.254  -4.015   0.954  1.00  0.00    +0.000 C 
ATOM      4  O   UNL     1       0.411  -5.121   1.430  1.00  0.00    +0.000 OA
ATOM      5  C   UNL     1       1.144  -2.829   1.128  1.00  0.00    +0.000 C 
ATOM      6  C   UNL     1       2.073  -2.749   2.085  1.00  0.00    +0.000 C 
ATOM      7  C   UNL     1       0.722  -1.859   0.084  1.00  0.00    +0.000 C 
ATOM      8  C   UNL     1       0.916  -0.353   0.224  1.00  0.00    +0.000 C 
ATOM      9  C   UNL     1       0.258   0.318  -0.999  1.00  0.00    +0.000 C 
ATOM     10  C   UNL     1      -1.260  -0.010  -1.171  1.00  0.00    +0.000 C 
ATOM     11  C   UNL     1      -1.458  -1.589  -1.154  1.00  0.00    +0.000 C 
ENDROOT
BRANCH  10  12
ATOM     12  C   UNL     1      -1.652   0.521  -2.558  1.00  0.00    +0.000 C 
ATOM     13  C   UNL     1      -2.511   1.502  -2.867  1.00  0.00    +0.000 C 
ENDBRANCH  10  12
BRANCH  11  14
ATOM     14  C   UNL     1      -2.908  -2.037  -1.299  1.00  0.00    +0.000 C 
ATOM     15  C   UNL     1      -3.797  -2.213  -0.307  1.00  0.00    +0.000 C 
BRANCH  14  16
ATOM     16  C   UNL     1      -3.381  -2.388  -2.673  1.00  0.00    +0.000 C 
ATOM     17  O   UNL     1      -2.653  -2.345  -3.657  1.00  0.00    +0.000 OA
ENDBRANCH  14  16
ENDBRANCH  11  14
BRANCH   8  18
ATOM     18  O   UNL     1       2.327  -0.068   0.198  1.00  0.00    +0.000 OA
BRANCH  18  19
ATOM     19  C   UNL     1       2.703   1.108   0.760  1.00  0.00    +0.000 C 
ATOM     20  O   UNL     1       1.948   1.925   1.269  1.00  0.00    +0.000 OA
BRANCH  19  21
ATOM     21  C   UNL     1       4.175   1.309   0.694  1.00  0.00    +0.000 C 
ATOM     22  C   UNL     1       5.015   0.352   0.263  1.00  0.00    +0.000 C 
BRANCH  21  23
ATOM     23  C   UNL     1       4.642   2.667   1.127  1.00  0.00    +0.000 C 
BRANCH  23  24
ATOM     24  O   UNL     1       4.387   2.858   2.513  1.00  0.00    +0.000 OA
ATOM     25  H   UNL     1       3.415   2.885   2.611  1.00  0.00    +0.000 HD
ENDBRANCH  23  24
ENDBRANCH  21  23
ENDBRANCH  19  21
ENDBRANCH  18  19
ENDBRANCH   8  18
BRANCH  10  26
ATOM     26  C   UNL     1      -2.071   0.666  -0.016  1.00  0.00    +0.000 C 
BRANCH  26  27
ATOM     27  O   UNL     1      -1.660   2.033   0.164  1.00  0.00    +0.000 OA
BRANCH  27  28
ATOM     28  C   UNL     1      -2.128   2.624   1.296  1.00  0.00    +0.000 C 
ATOM     29  C   UNL     1      -1.609   4.025   1.397  1.00  0.00    +0.000 C 
ATOM     30  O   UNL     1      -2.863   2.091   2.115  1.00  0.00    +0.000 OA
ENDBRANCH  27  28
ENDBRANCH  26  27
ENDBRANCH  10  26
TORSDOF 11
