REMARK  Name = SANC00294.pdb
AUTHORGENERATED BY OPEN BABEL 2.3.0
REMARK  11 active torsions:
REMARK  status: ('A' for Active; 'I' for Inactive)
REMARK    1  A    between atoms: C_7  and  C_20
REMARK    2  A    between atoms: C_8  and  C_35
REMARK    3  A    between atoms: C_9  and  C_36
REMARK    4  A    between atoms: O_12  and  C_37
REMARK    5  A    between atoms: O_13  and  C_38
REMARK    6  A    between atoms: O_14  and  C_44
REMARK    7  A    between atoms: O_15  and  C_46
REMARK    8  A    between atoms: C_20  and  C_21
REMARK    9  A    between atoms: C_21  and  C_33
REMARK   10  A    between atoms: O_29  and  C_33
REMARK   11  A    between atoms: O_29  and  C_39
REMARK                            x       y       z     vdW  Elec       q    Type
REMARK                         _______ _______ _______ _____ _____    ______ ____
ROOT
ATOM      1  C   UNL     1       0.164   4.197   1.593  1.00  0.00    +0.000 C 
ATOM      2  C   UNL     1      -4.199  -1.573   3.453  1.00  0.00    +0.000 C 
ATOM      3  O   UNL     1       1.038  -3.114   1.265  1.00  0.00    +0.000 OA
ATOM      4  C   UNL     1      -3.602   1.965   2.224  1.00  0.00    +0.000 C 
ATOM      5  C   UNL     1      -2.399   2.696   1.898  1.00  0.00    +0.000 C 
ATOM      6  C   UNL     1      -4.328   1.267   1.339  1.00  0.00    +0.000 C 
ATOM      7  C   UNL     1      -1.370   2.180   1.206  1.00  0.00    +0.000 C 
ATOM      8  C   UNL     1      -5.580   0.504   1.681  1.00  0.00    +0.000 C 
ATOM      9  C   UNL     1       0.159   2.939  -0.632  1.00  0.00    +0.000 C 
ATOM     10  C   UNL     1       1.784   3.527  -2.556  1.00  0.00    +0.000 C 
ATOM     11  C   UNL     1       3.237   1.479  -2.572  1.00  0.00    +0.000 C 
ATOM     12  C   UNL     1      -3.406  -1.973   1.065  1.00  0.00    +0.000 C 
ATOM     13  C   UNL     1       1.890   0.157  -0.816  1.00  0.00    +0.000 C 
ATOM     14  C   UNL     1      -2.115  -2.155  -1.940  1.00  0.00    +0.000 C 
ATOM     15  O   UNL     1      -0.617  -2.199  -0.010  1.00  0.00    +0.000 OA
ATOM     16  O   UNL     1       2.587   2.508  -0.454  1.00  0.00    +0.000 OA
ATOM     17  O   UNL     1      -5.299  -1.129  -0.100  1.00  0.00    +0.000 OA
ATOM     18  C   UNL     1       0.660  -2.637   0.204  1.00  0.00    +0.000 C 
ATOM     19  C   UNL     1      -0.037   2.842   0.903  1.00  0.00    +0.000 C 
ATOM     20  C   UNL     1      -4.576  -1.920   2.025  1.00  0.00    +0.000 C 
ATOM     21  C   UNL     1       2.150   2.256  -3.306  1.00  0.00    +0.000 C 
ATOM     22  C   UNL     1      -3.303  -1.324  -1.442  1.00  0.00    +0.000 C 
ATOM     23  C   UNL     1       2.514  -1.250  -0.847  1.00  0.00    +0.000 C 
ATOM     24  C   UNL     1       1.588   3.335  -1.048  1.00  0.00    +0.000 C 
ATOM     25  C   UNL     1       2.924   1.271  -1.087  1.00  0.00    +0.000 C 
ATOM     26  C   UNL     1      -5.565  -0.993   1.315  1.00  0.00    +0.000 C 
ATOM     27  C   UNL     1      -4.103  -1.937  -0.281  1.00  0.00    +0.000 C 
ATOM     28  C   UNL     1       0.444  -2.263  -2.109  1.00  0.00    +0.000 C 
ATOM     29  C   UNL     1      -0.768  -1.720  -1.352  1.00  0.00    +0.000 C 
ATOM     30  C   UNL     1       1.523  -2.442  -1.035  1.00  0.00    +0.000 C 
ENDROOT
BRANCH  21  31
ATOM     31  O   UNL     1       1.002   1.437  -3.501  1.00  0.00    +0.000 OA
ATOM     32  H   UNL     1       0.399   1.918  -4.098  1.00  0.00    +0.000 HD
ENDBRANCH  21  31
BRANCH  22  33
ATOM     33  O   UNL     1      -4.213  -1.180  -2.552  1.00  0.00    +0.000 OA
ATOM     34  H   UNL     1      -5.061  -0.900  -2.148  1.00  0.00    +0.000 HD
ENDBRANCH  22  33
BRANCH  28  35
ATOM     35  O   UNL     1       0.132  -3.539  -2.700  1.00  0.00    +0.000 OA
ATOM     36  H   UNL     1       0.953  -4.074  -2.611  1.00  0.00    +0.000 HD
ENDBRANCH  28  35
BRANCH  30  37
ATOM     37  O   UNL     1       2.248  -3.630  -1.413  1.00  0.00    +0.000 OA
ATOM     38  H   UNL     1       3.024  -3.726  -0.821  1.00  0.00    +0.000 HD
ENDBRANCH  30  37
BRANCH  23  39
ATOM     39  O   UNL     1       3.234  -1.326   0.422  1.00  0.00    +0.000 OA
BRANCH  39  41
ATOM     40  O   UNL     1       4.523  -3.080  -0.244  1.00  0.00    +0.000 OA
ATOM     41  C   UNL     1       4.223  -2.234   0.587  1.00  0.00    +0.000 C 
BRANCH  41  42
ATOM     42  C   UNL     1       4.865  -2.106   1.944  1.00  0.00    +0.000 C 
BRANCH  42  44
ATOM     43  C   UNL     1       6.566  -0.341   1.288  1.00  0.00    +0.000 C 
ATOM     44  C   UNL     1       5.417  -0.709   2.217  1.00  0.00    +0.000 C 
ENDBRANCH  42  44
ENDBRANCH  41  42
ENDBRANCH  39  41
ENDBRANCH  23  39
TORSDOF 8
