REMARK  Name = SANCDB_00814_minRM1.pdb
AUTHORGENERATED BY OPEN BABEL 2.3.2
REMARK  22 active torsions:
REMARK  status: ('A' for Active; 'I' for Inactive)
REMARK    1  A    between atoms: C_1  and  O_2
REMARK    2  A    between atoms: O_2  and  C_3
REMARK    3  A    between atoms: C_3  and  C_5
REMARK    4  A    between atoms: C_5  and  C_6
REMARK    5  A    between atoms: C_7  and  C_8
REMARK    6  A    between atoms: C_7  and  C_23
REMARK    7  A    between atoms: C_9  and  O_10
REMARK    8  A    between atoms: O_10  and  C_11
REMARK    9  A    between atoms: C_11  and  C_13
REMARK   10  A    between atoms: C_15  and  O_19
REMARK   11  A    between atoms: C_16  and  C_17
REMARK   12  A    between atoms: C_16  and  C_18
REMARK   13  A    between atoms: O_19  and  C_20
REMARK   14  A    between atoms: C_20  and  C_22
REMARK   15  A    between atoms: C_24  and  O_25
REMARK   16  A    between atoms: O_25  and  C_26
REMARK   17  A    between atoms: C_26  and  C_28
REMARK   18  A    between atoms: C_29  and  O_30
REMARK   19  A    between atoms: O_30  and  C_31
REMARK   20  A    between atoms: C_31  and  C_33
REMARK   21  A    between atoms: C_34  and  C_46
REMARK   22  A    between atoms: C_38  and  C_39
REMARK                            x       y       z     vdW  Elec       q    Type
REMARK                         _______ _______ _______ _____ _____    ______ ____
ROOT
ATOM      1  C   UNL     1       0.505   0.385  -0.635  1.00  0.00    +0.000 C 
ATOM      2  C   UNL     1       1.712   1.143   0.054  1.00  0.00    +0.000 C 
ATOM      3  C   UNL     1       3.115   0.681  -0.451  1.00  0.00    +0.000 C 
ATOM      4  C   UNL     1       3.299  -0.871  -0.479  1.00  0.00    +0.000 C 
ATOM      5  C   UNL     1       2.013  -1.584  -0.111  1.00  0.00    +0.000 C 
ATOM      6  C   UNL     1       2.217  -2.648   0.677  1.00  0.00    +0.000 C 
ATOM      7  C   UNL     1       3.670  -2.854   0.951  1.00  0.00    +0.000 C 
ATOM      8  C   UNL     1       4.298  -1.489   0.571  1.00  0.00    +0.000 C 
ATOM      9  C   UNL     1       0.763  -1.135  -0.681  1.00  0.00    +0.000 C 
ATOM     10  C   UNL     1       0.021  -2.043  -1.340  1.00  0.00    +0.000 C 
ATOM     11  C   UNL     1       3.717  -1.390  -1.885  1.00  0.00    +0.000 C 
ENDROOT
BRANCH   1  13
ATOM     12  C   UNL     1      -1.887  -0.145   0.573  1.00  0.00    +0.000 C 
ATOM     13  C   UNL     1      -1.006   0.930  -0.231  1.00  0.00    +0.000 C 
ATOM     14  C   UNL     1      -0.911   2.254   0.584  1.00  0.00    +0.000 C 
ATOM     15  C   UNL     1      -1.728   1.343  -1.576  1.00  0.00    +0.000 C 
ATOM     16  C   UNL     1      -3.204   1.694  -1.399  1.00  0.00    +0.000 C 
ATOM     17  C   UNL     1      -3.978   0.532  -0.783  1.00  0.00    +0.000 C 
ATOM     18  C   UNL     1      -3.459   0.133   0.635  1.00  0.00    +0.000 C 
ATOM     19  C   UNL     1      -4.215  -1.177   1.010  1.00  0.00    +0.000 C 
ATOM     20  C   UNL     1      -3.894   1.165   1.701  1.00  0.00    +0.000 C 
BRANCH  12  21
ATOM     21  C   UNL     1      -1.243  -0.474   1.948  1.00  0.00    +0.000 C 
BRANCH  21  22
ATOM     22  C   UNL     1      -1.605  -1.803   2.567  1.00  0.00    +0.000 C 
ATOM     23  O   UNL     1      -1.986  -1.927   3.724  1.00  0.00    +0.000 OA
BRANCH  22  25
ATOM     24  C   UNL     1      -1.706  -4.116   2.233  1.00  0.00    +0.000 C 
ATOM     25  O   UNL     1      -1.404  -2.828   1.698  1.00  0.00    +0.000 OA
ENDBRANCH  22  25
ENDBRANCH  21  22
ENDBRANCH  12  21
BRANCH  15  26
ATOM     26  O   UNL     1      -1.661   0.275  -2.542  1.00  0.00    +0.000 OA
BRANCH  26  27
ATOM     27  C   UNL     1      -1.617   0.640  -3.855  1.00  0.00    +0.000 C 
ATOM     28  O   UNL     1      -1.574   1.788  -4.272  1.00  0.00    +0.000 OA
ATOM     29  C   UNL     1      -1.607  -0.579  -4.725  1.00  0.00    +0.000 C 
ENDBRANCH  26  27
ENDBRANCH  15  26
BRANCH  17  30
ATOM     30  O   UNL     1      -5.371   0.910  -0.706  1.00  0.00    +0.000 OA
BRANCH  30  31
ATOM     31  C   UNL     1      -6.126   0.663  -1.812  1.00  0.00    +0.000 C 
ATOM     32  O   UNL     1      -5.726   0.157  -2.850  1.00  0.00    +0.000 OA
ATOM     33  C   UNL     1      -7.537   1.107  -1.574  1.00  0.00    +0.000 C 
ENDBRANCH  30  31
ENDBRANCH  17  30
ENDBRANCH   1  13
BRANCH   8  34
ATOM     34  C   UNL     1       4.649  -0.669   1.788  1.00  0.00    +0.000 A 
ATOM     35  C   UNL     1       4.047  -0.670   3.080  1.00  0.00    +0.000 A 
ATOM     36  C   UNL     1       4.786   0.185   3.863  1.00  0.00    +0.000 A 
ATOM     37  O   UNL     1       5.791   0.735   3.141  1.00  0.00    +0.000 OA
ATOM     38  C   UNL     1       5.711   0.213   1.892  1.00  0.00    +0.000 A 
ENDBRANCH   8  34
BRANCH   2  39
ATOM     39  O   UNL     1       1.630   1.046   1.490  1.00  0.00    +0.000 OA
BRANCH  39  40
ATOM     40  C   UNL     1       2.117   2.118   2.179  1.00  0.00    +0.000 C 
ATOM     41  O   UNL     1       2.664   3.089   1.678  1.00  0.00    +0.000 OA
ATOM     42  C   UNL     1       1.788   1.999   3.637  1.00  0.00    +0.000 C 
ENDBRANCH  39  40
ENDBRANCH   2  39
BRANCH   3  43
ATOM     43  O   UNL     1       3.255   1.271  -1.775  1.00  0.00    +0.000 OA
BRANCH  43  44
ATOM     44  C   UNL     1       4.508   1.675  -2.122  1.00  0.00    +0.000 C 
ATOM     45  O   UNL     1       5.523   1.484  -1.467  1.00  0.00    +0.000 OA
ATOM     46  C   UNL     1       4.474   2.359  -3.454  1.00  0.00    +0.000 C 
ENDBRANCH  43  44
ENDBRANCH   3  43
TORSDOF 13
