REMARK  Name = SANCDB_00960_minRM1.pdb
AUTHORGENERATED BY OPEN BABEL 2.3.2
REMARK  27 active torsions:
REMARK  status: ('A' for Active; 'I' for Inactive)
REMARK    1  A    between atoms: C_1  and  C_2
REMARK    2  A    between atoms: C_2  and  C_3
REMARK    3  A    between atoms: C_3  and  C_4
REMARK    4  A    between atoms: C_3  and  C_5
REMARK    5  A    between atoms: C_5  and  C_6
REMARK    6  A    between atoms: C_5  and  O_54
REMARK    7  A    between atoms: C_6  and  O_8
REMARK    8  A    between atoms: O_8  and  C_9
REMARK    9  A    between atoms: C_10  and  O_51
REMARK   10  A    between atoms: C_11  and  C_27
REMARK   11  A    between atoms: C_14  and  O_26
REMARK   12  A    between atoms: C_15  and  C_25
REMARK   13  A    between atoms: C_16  and  C_20
REMARK   14  A    between atoms: C_27  and  C_50
REMARK   15  A    between atoms: C_28  and  O_46
REMARK   16  A    between atoms: C_33  and  C_40
REMARK   17  A    between atoms: C_33  and  C_41
REMARK   18  A    between atoms: C_34  and  C_35
REMARK   19  A    between atoms: C_35  and  C_36
REMARK   20  A    between atoms: C_36  and  O_38
REMARK   21  A    between atoms: O_38  and  C_39
REMARK   22  A    between atoms: C_41  and  O_42
REMARK   23  A    between atoms: O_42  and  C_43
REMARK   24  A    between atoms: C_43  and  C_45
REMARK   25  A    between atoms: O_46  and  C_47
REMARK   26  A    between atoms: C_47  and  C_49
REMARK   27  A    between atoms: O_51  and  C_52
REMARK                            x       y       z     vdW  Elec       q    Type
REMARK                         _______ _______ _______ _____ _____    ______ ____
ROOT
ATOM      1  C   UNL     1       1.815  -0.926   0.247  1.00  0.00    +0.000 C 
ATOM      2  C   UNL     1       0.946   0.174  -0.422  1.00  0.00    +0.000 C 
ATOM      3  C   UNL     1      -0.609  -0.192  -0.626  1.00  0.00    +0.000 C 
ATOM      4  C   UNL     1      -0.776  -1.743  -0.541  1.00  0.00    +0.000 C 
ATOM      5  C   UNL     1      -1.729  -2.460   0.074  1.00  0.00    +0.000 C 
ATOM      6  C   UNL     1       0.375  -2.460  -1.203  1.00  0.00    +0.000 C 
ATOM      7  C   UNL     1       1.620  -2.382  -0.268  1.00  0.00    +0.000 C 
ATOM      8  C   UNL     1       2.691  -3.065  -1.173  1.00  0.00    +0.000 C 
ATOM      9  C   UNL     1       1.964  -4.322  -1.727  1.00  0.00    +0.000 C 
ATOM     10  C   UNL     1       0.495  -3.934  -1.618  1.00  0.00    +0.000 C 
ATOM     11  O   UNL     1      -0.426  -4.708  -1.843  1.00  0.00    +0.000 OA
ATOM     12  C   UNL     1       1.406  -3.235   1.038  1.00  0.00    +0.000 C 
ENDROOT
BRANCH   3  13
ATOM     13  C   UNL     1      -1.699   0.886  -0.015  1.00  0.00    +0.000 C 
ATOM     14  C   UNL     1      -2.043   0.580   1.488  1.00  0.00    +0.000 C 
ATOM     15  C   UNL     1      -2.793   1.672   2.260  1.00  0.00    +0.000 C 
ATOM     16  C   UNL     1      -4.096   2.000   1.612  1.00  0.00    +0.000 C 
ATOM     17  O   UNL     1      -5.192   1.627   1.997  1.00  0.00    +0.000 OA
ATOM     18  O   UNL     1      -3.882   2.787   0.535  1.00  0.00    +0.000 OA
ATOM     19  C   UNL     1      -4.080   2.184  -0.762  1.00  0.00    +0.000 C 
ATOM     20  C   UNL     1      -3.009   1.008  -1.018  1.00  0.00    +0.000 C 
ATOM     21  C   UNL     1      -3.770   3.341  -1.759  1.00  0.00    +0.000 C 
ATOM     22  C   UNL     1      -1.004   2.294  -0.059  1.00  0.00    +0.000 C 
BRANCH  20  23
ATOM     23  C   UNL     1      -3.628  -0.287  -1.619  1.00  0.00    +0.000 C 
BRANCH  23  24
ATOM     24  C   UNL     1      -4.629  -1.121  -0.851  1.00  0.00    +0.000 C 
ATOM     25  O   UNL     1      -5.325  -1.975  -1.383  1.00  0.00    +0.000 OA
BRANCH  24  26
ATOM     26  O   UNL     1      -4.646  -0.818   0.465  1.00  0.00    +0.000 OA
ATOM     27  C   UNL     1      -5.600  -1.558   1.234  1.00  0.00    +0.000 C 
ENDBRANCH  24  26
ENDBRANCH  23  24
ENDBRANCH  20  23
BRANCH  19  28
ATOM     28  C   UNL     1      -5.587   1.846  -0.978  1.00  0.00    +0.000 C 
BRANCH  28  29
ATOM     29  O   UNL     1      -6.391   3.025  -0.771  1.00  0.00    +0.000 OA
BRANCH  29  30
ATOM     30  C   UNL     1      -7.728   2.825  -0.917  1.00  0.00    +0.000 C 
ATOM     31  O   UNL     1      -8.253   1.779  -1.269  1.00  0.00    +0.000 OA
ATOM     32  C   UNL     1      -8.474   4.085  -0.601  1.00  0.00    +0.000 C 
ENDBRANCH  29  30
ENDBRANCH  28  29
ENDBRANCH  19  28
BRANCH  14  33
ATOM     33  O   UNL     1      -0.796   0.342   2.200  1.00  0.00    +0.000 OA
BRANCH  33  34
ATOM     34  C   UNL     1      -0.880  -0.443   3.313  1.00  0.00    +0.000 C 
ATOM     35  O   UNL     1      -1.875  -1.060   3.664  1.00  0.00    +0.000 OA
ATOM     36  C   UNL     1       0.423  -0.465   4.049  1.00  0.00    +0.000 C 
ENDBRANCH  33  34
ENDBRANCH  14  33
ENDBRANCH   3  13
BRANCH   8  37
ATOM     37  C   UNL     1       4.033  -3.380  -0.579  1.00  0.00    +0.000 A 
ATOM     38  C   UNL     1       5.230  -2.785  -0.936  1.00  0.00    +0.000 A 
ATOM     39  O   UNL     1       6.262  -3.288  -0.217  1.00  0.00    +0.000 OA
ATOM     40  C   UNL     1       5.747  -4.246   0.591  1.00  0.00    +0.000 A 
ATOM     41  C   UNL     1       4.390  -4.353   0.400  1.00  0.00    +0.000 A 
ENDBRANCH   8  37
BRANCH   6  42
ATOM     42  O   UNL     1       0.536  -1.875  -2.512  1.00  0.00    +0.000 OA
ATOM     43  H   UNL     1       1.204  -1.168  -2.484  1.00  0.00    +0.000 HD
ENDBRANCH   6  42
BRANCH   1  44
ATOM     44  O   UNL     1       3.215  -0.569   0.206  1.00  0.00    +0.000 OA
BRANCH  44  45
ATOM     45  C   UNL     1       3.699   0.123   1.277  1.00  0.00    +0.000 C 
ATOM     46  O   UNL     1       3.024   0.509   2.226  1.00  0.00    +0.000 OA
BRANCH  45  47
ATOM     47  C   UNL     1       5.226   0.275   1.222  1.00  0.00    +0.000 C 
BRANCH  47  48
ATOM     48  O   UNL     1       5.722   0.970   2.369  1.00  0.00    +0.000 OA
ATOM     49  H   UNL     1       5.025   0.923   3.052  1.00  0.00    +0.000 HD
ENDBRANCH  47  48
BRANCH  47  50
ATOM     50  C   UNL     1       5.712   0.981  -0.062  1.00  0.00    +0.000 C 
ATOM     51  C   UNL     1       7.218   0.746  -0.242  1.00  0.00    +0.000 C 
BRANCH  50  53
ATOM     52  C   UNL     1       5.628   3.184  -1.368  1.00  0.00    +0.000 C 
ATOM     53  C   UNL     1       5.392   2.491  -0.032  1.00  0.00    +0.000 C 
ENDBRANCH  50  53
ENDBRANCH  47  50
ENDBRANCH  45  47
ENDBRANCH  44  45
ENDBRANCH   1  44
BRANCH   2  54
ATOM     54  O   UNL     1       1.526   0.406  -1.746  1.00  0.00    +0.000 OA
BRANCH  54  55
ATOM     55  C   UNL     1       2.069   1.626  -1.987  1.00  0.00    +0.000 C 
ATOM     56  O   UNL     1       2.128   2.562  -1.210  1.00  0.00    +0.000 OA
ENDBRANCH  54  55
ENDBRANCH   2  54
TORSDOF 19
