REMARK  Name = /srv/my_project/app/compsite/backup/Dave/CORINA_stuff/newPDBs/SANC00669.pdb
AUTHORGENERATED BY OPEN BABEL 2.3.2
REMARK  23 active torsions:
REMARK  status: ('A' for Active; 'I' for Inactive)
REMARK    1  A    between atoms: C_2  and  O_3
REMARK    2  A    between atoms: O_3  and  C_4
REMARK    3  A    between atoms: C_7  and  O_9
REMARK    4  A    between atoms: C_20  and  C_21
REMARK    5  A    between atoms: C_25  and  O_27
REMARK    6  A    between atoms: O_27  and  C_28
REMARK    7  A    between atoms: C_31  and  C_33
REMARK    8  A    between atoms: C_34  and  O_36
REMARK    9  A    between atoms: C_37  and  O_39
REMARK   10  A    between atoms: C_40  and  O_42
REMARK   11  A    between atoms: C_43  and  C_45
REMARK   12  A    between atoms: C_45  and  C_47
REMARK   13  A    between atoms: C_45  and  C_48
REMARK   14  A    between atoms: C_48  and  O_50
REMARK   15  A    between atoms: C_48  and  C_51
REMARK   16  A    between atoms: C_51  and  C_52
REMARK   17  A    between atoms: C_53  and  C_54
REMARK   18  A    between atoms: C_53  and  C_55
REMARK   19  A    between atoms: C_56  and  C_57
REMARK   20  A    between atoms: C_59  and  C_61
REMARK   21  A    between atoms: C_62  and  O_64
REMARK   22  A    between atoms: C_65  and  O_67
REMARK   23  A    between atoms: C_68  and  O_70
REMARK                            x       y       z     vdW  Elec       q    Type
REMARK                         _______ _______ _______ _____ _____    ______ ____
ROOT
ATOM      1  C   UNL     1       4.212   0.457   1.726  1.00  0.00    +0.000 C 
ATOM      2  C   UNL     1       4.346   0.951   3.180  1.00  0.00    +0.000 C 
ATOM      3  C   UNL     1       4.751  -0.159   4.167  1.00  0.00    +0.000 C 
ATOM      4  C   UNL     1       4.359  -1.562   3.691  1.00  0.00    +0.000 C 
ATOM      5  C   UNL     1       3.070  -1.485   2.912  1.00  0.00    +0.000 C 
ATOM      6  C   UNL     1       1.922  -1.959   3.427  1.00  0.00    +0.000 C 
ATOM      7  C   UNL     1       0.578  -1.792   2.797  1.00  0.00    +0.000 C 
ATOM      8  C   UNL     1       0.613  -1.214   1.373  1.00  0.00    +0.000 C 
ATOM      9  C   UNL     1       1.729  -0.134   1.226  1.00  0.00    +0.000 C 
ATOM     10  C   UNL     1       1.655   0.561  -0.160  1.00  0.00    +0.000 C 
ATOM     11  C   UNL     1       0.247   1.046  -0.550  1.00  0.00    +0.000 C 
ATOM     12  C   UNL     1      -0.810  -0.070  -0.454  1.00  0.00    +0.000 C 
ATOM     13  C   UNL     1      -0.532  -1.153  -1.525  1.00  0.00    +0.000 C 
ATOM     14  C   UNL     1      -0.743  -0.600   1.000  1.00  0.00    +0.000 C 
ATOM     15  C   UNL     1      -1.985  -1.470   1.143  1.00  0.00    +0.000 C 
ATOM     16  C   UNL     1      -3.044  -0.780   0.259  1.00  0.00    +0.000 C 
ATOM     17  C   UNL     1      -2.307   0.398  -0.471  1.00  0.00    +0.000 C 
ATOM     18  C   UNL     1       3.157  -0.720   1.579  1.00  0.00    +0.000 C 
ATOM     19  C   UNL     1       3.619  -1.740   0.506  1.00  0.00    +0.000 C 
ENDROOT
BRANCH  17  20
ATOM     20  C   UNL     1      -2.978   0.838  -1.811  1.00  0.00    +0.000 C 
ATOM     21  C   UNL     1      -2.123   1.812  -2.631  1.00  0.00    +0.000 C 
BRANCH  20  22
ATOM     22  C   UNL     1      -4.419   1.427  -1.631  1.00  0.00    +0.000 C 
BRANCH  22  23
ATOM     23  O   UNL     1      -5.337   0.405  -1.228  1.00  0.00    +0.000 OA
ATOM     24  H   UNL     1      -5.301  -0.317  -1.889  1.00  0.00    +0.000 HD
ENDBRANCH  22  23
BRANCH  22  25
ATOM     25  C   UNL     1      -4.604   2.576  -0.617  1.00  0.00    +0.000 C 
BRANCH  25  26
ATOM     26  C   UNL     1      -3.845   3.843  -0.893  1.00  0.00    +0.000 C 
ATOM     27  C   UNL     1      -4.242   4.878  -1.659  1.00  0.00    +0.000 C 
ATOM     28  C   UNL     1      -3.374   6.097  -1.818  1.00  0.00    +0.000 C 
ATOM     29  C   UNL     1      -5.537   4.931  -2.422  1.00  0.00    +0.000 C 
ENDBRANCH  25  26
ENDBRANCH  22  25
ENDBRANCH  20  22
ENDBRANCH  17  20
BRANCH   3  30
ATOM     30  O   UNL     1       6.157  -0.127   4.422  1.00  0.00    +0.000 OA
ATOM     31  H   UNL     1       6.383   0.772   4.710  1.00  0.00    +0.000 HD
ENDBRANCH   3  30
BRANCH  16  32
ATOM     32  O   UNL     1      -3.530  -1.724  -0.694  1.00  0.00    +0.000 OA
BRANCH  32  33
ATOM     33  C   UNL     1      -4.666  -2.463  -0.245  1.00  0.00    +0.000 C 
ATOM     34  O   UNL     1      -4.311  -3.412   0.758  1.00  0.00    +0.000 OA
ATOM     35  C   UNL     1      -5.447  -4.059   1.348  1.00  0.00    +0.000 C 
ATOM     36  C   UNL     1      -5.916  -3.275   2.569  1.00  0.00    +0.000 C 
ATOM     37  C   UNL     1      -6.594  -4.302   0.344  1.00  0.00    +0.000 C 
ATOM     38  C   UNL     1      -6.026  -4.444  -1.071  1.00  0.00    +0.000 C 
ATOM     39  C   UNL     1      -5.249  -3.187  -1.479  1.00  0.00    +0.000 C 
BRANCH  39  40
ATOM     40  O   UNL     1      -6.104  -2.288  -2.216  1.00  0.00    +0.000 OA
ATOM     41  H   UNL     1      -6.727  -2.881  -2.689  1.00  0.00    +0.000 HD
ENDBRANCH  39  40
BRANCH  38  42
ATOM     42  O   UNL     1      -7.082  -4.688  -2.016  1.00  0.00    +0.000 OA
ATOM     43  H   UNL     1      -7.728  -5.260  -1.552  1.00  0.00    +0.000 HD
ENDBRANCH  38  42
BRANCH  37  44
ATOM     44  O   UNL     1      -7.346  -5.478   0.673  1.00  0.00    +0.000 OA
ATOM     45  H   UNL     1      -6.725  -6.224   0.766  1.00  0.00    +0.000 HD
ENDBRANCH  37  44
ENDBRANCH  32  33
ENDBRANCH  16  32
BRANCH   1  46
ATOM     46  O   UNL     1       5.520   0.047   1.299  1.00  0.00    +0.000 OA
BRANCH  46  47
ATOM     47  C   UNL     1       5.952   0.656   0.081  1.00  0.00    +0.000 C 
ATOM     48  O   UNL     1       6.877  -0.225  -0.558  1.00  0.00    +0.000 OA
ATOM     49  C   UNL     1       7.295   0.214  -1.860  1.00  0.00    +0.000 C 
ATOM     50  C   UNL     1       6.334  -0.307  -2.924  1.00  0.00    +0.000 C 
ATOM     51  C   UNL     1       7.480   1.741  -1.946  1.00  0.00    +0.000 C 
ATOM     52  C   UNL     1       7.804   2.280  -0.552  1.00  0.00    +0.000 C 
ATOM     53  C   UNL     1       6.622   2.017   0.390  1.00  0.00    +0.000 C 
BRANCH  53  54
ATOM     54  O   UNL     1       5.652   3.078   0.248  1.00  0.00    +0.000 OA
ATOM     55  H   UNL     1       6.160   3.865  -0.036  1.00  0.00    +0.000 HD
ENDBRANCH  53  54
BRANCH  52  56
ATOM     56  O   UNL     1       8.062   3.695  -0.627  1.00  0.00    +0.000 OA
ATOM     57  H   UNL     1       8.583   3.925   0.166  1.00  0.00    +0.000 HD
ENDBRANCH  52  56
BRANCH  51  58
ATOM     58  O   UNL     1       8.533   2.071  -2.855  1.00  0.00    +0.000 OA
ATOM     59  H   UNL     1       8.720   3.018  -2.704  1.00  0.00    +0.000 HD
ENDBRANCH  51  58
ENDBRANCH  46  47
ENDBRANCH   1  46
TORSDOF 16
