REMARK  Name = SANCDB01003.pdb
REMARK  8 active torsions:
REMARK  status: ('A' for Active; 'I' for Inactive)
REMARK    1  A    between atoms: C_1  and  C_2
REMARK    2  A    between atoms: C_2  and  C_4
REMARK    3  A    between atoms: C_7  and  C_31
REMARK    4  A    between atoms: C_13  and  C_30
REMARK    5  A    between atoms: C_18  and  C_28
REMARK    6  A    between atoms: C_18  and  C_29
REMARK    7  A    between atoms: C_22  and  C_27
REMARK    8  A    between atoms: C_23  and  C_26
REMARK                            x       y       z     vdW  Elec       q    Type
REMARK                         _______ _______ _______ _____ _____    ______ ____
ROOT
ATOM      1  C   UNL     1       4.310  -0.305  -1.081  1.00  0.00    +0.000 C 
ATOM      2  C   UNL     1       5.604   0.470  -0.705  1.00  0.00    +0.000 C 
ATOM      3  C   UNL     1       5.183   1.583   0.269  1.00  0.00    +0.000 C 
ATOM      4  C   UNL     1       3.682   1.769   0.009  1.00  0.00    +0.000 C 
ATOM      5  C   UNL     1       3.242   0.290  -0.134  1.00  0.00    +0.000 C 
ATOM      6  C   UNL     1       1.740   0.191  -0.479  1.00  0.00    +0.000 C 
ATOM      7  C   UNL     1       1.264  -1.234  -0.786  1.00  0.00    +0.000 C 
ATOM      8  C   UNL     1      -0.217  -1.296  -1.171  1.00  0.00    +0.000 C 
ATOM      9  C   UNL     1      -1.151  -0.615  -0.144  1.00  0.00    +0.000 C 
ATOM     10  C   UNL     1      -2.710  -0.851  -0.401  1.00  0.00    +0.000 C 
ATOM     11  C   UNL     1      -2.998  -2.384  -0.354  1.00  0.00    +0.000 C 
ATOM     12  C   UNL     1      -4.476  -2.752  -0.325  1.00  0.00    +0.000 C 
ATOM     13  C   UNL     1      -5.213  -2.036   0.780  1.00  0.00    +0.000 C 
ATOM     14  O   UNL     1      -6.007  -2.660   1.487  1.00  0.00    +0.000 OA
ATOM     15  C   UNL     1      -5.019  -0.515   0.902  1.00  0.00    +0.000 C 
ATOM     16  C   UNL     1      -3.486  -0.201   0.807  1.00  0.00    +0.000 C 
ATOM     17  C   UNL     1      -3.134   1.292   0.956  1.00  0.00    +0.000 C 
ATOM     18  C   UNL     1      -1.638   1.489   1.219  1.00  0.00    +0.000 C 
ATOM     19  C   UNL     1      -0.700   0.875   0.143  1.00  0.00    +0.000 C 
ATOM     20  C   UNL     1       0.850   0.868   0.645  1.00  0.00    +0.000 C 
ATOM     21  C   UNL     1       1.386   2.312   0.956  1.00  0.00    +0.000 C 
ATOM     22  C   UNL     1       2.910   2.408   1.170  1.00  0.00    +0.000 C 
ATOM     23  C   UNL     1       0.997   0.081   1.994  1.00  0.00    +0.000 C 
ATOM     24  C   UNL     1      -0.841   1.764  -1.129  1.00  0.00    +0.000 C 
ATOM     25  C   UNL     1      -5.558  -0.084   2.290  1.00  0.00    +0.000 C 
ATOM     26  C   UNL     1      -5.894   0.175  -0.154  1.00  0.00    +0.000 C 
ATOM     27  C   UNL     1      -3.158  -0.328  -1.786  1.00  0.00    +0.000 C 
ATOM     28  C   UNL     1       3.510   2.635  -1.266  1.00  0.00    +0.000 C 
ENDROOT
BRANCH   1  30
ATOM     29  C   UNL     1       4.693  -2.473   0.310  1.00  0.00    +0.000 C 
ATOM     30  C   UNL     1       4.523  -1.810  -1.031  1.00  0.00    +0.000 C 
ATOM     31  C   UNL     1       4.581  -2.535  -2.162  1.00  0.00    +0.000 C 
ENDBRANCH   1  30
TORSDOF 1
