REMARK  Name = /srv/my_project/app/compsite/backup/Dave/CORINA_stuff/newPDBs/SANC00115.pdb
AUTHORGENERATED BY OPEN BABEL 2.3.2
REMARK  5 active torsions:
REMARK  status: ('A' for Active; 'I' for Inactive)
REMARK    1  A    between atoms: C_10  and  O_12
REMARK    2  A    between atoms: O_12  and  C_13
REMARK    3  A    between atoms: C_13  and  C_15
REMARK    4  A    between atoms: C_15  and  C_16
REMARK    5  A    between atoms: C_17  and  C_18
REMARK                            x       y       z     vdW  Elec       q    Type
REMARK                         _______ _______ _______ _____ _____    ______ ____
ROOT
ATOM      1  C   UNL     1      -1.698  -0.153  -0.624  1.00  0.00    +0.000 C 
ATOM      2  C   UNL     1      -1.648  -1.464   0.092  1.00  0.00    +0.000 C 
ATOM      3  C   UNL     1      -0.855  -2.511  -0.161  1.00  0.00    +0.000 C 
ATOM      4  C   UNL     1      -2.685  -1.405   1.199  1.00  0.00    +0.000 C 
ATOM      5  C   UNL     1      -3.343  -0.024   1.013  1.00  0.00    +0.000 C 
ATOM      6  N   UNL     1      -2.248   0.720   0.429  1.00  0.00    +0.000 NA
ATOM      7  C   UNL     1      -2.452   2.000  -0.202  1.00  0.00    +0.000 C 
ATOM      8  C   UNL     1      -1.185   2.130  -1.071  1.00  0.00    +0.000 C 
ATOM      9  C   UNL     1      -0.538   0.721  -1.105  1.00  0.00    +0.000 C 
ENDROOT
BRANCH   9  10
ATOM     10  O   UNL     1       0.568   0.724  -0.185  1.00  0.00    +0.000 OA
BRANCH  10  11
ATOM     11  C   UNL     1       1.602  -0.093  -0.493  1.00  0.00    +0.000 C 
ATOM     12  O   UNL     1       1.718  -0.761  -1.508  1.00  0.00    +0.000 OA
BRANCH  11  13
ATOM     13  C   UNL     1       2.589  -0.064   0.623  1.00  0.00    +0.000 C 
ATOM     14  C   UNL     1       2.016  -0.036   2.010  1.00  0.00    +0.000 C 
ATOM     15  C   UNL     1       3.916  -0.120   0.394  1.00  0.00    +0.000 C 
ATOM     16  C   UNL     1       4.620  -0.131  -0.926  1.00  0.00    +0.000 C 
ENDBRANCH  11  13
ENDBRANCH  10  11
ENDBRANCH   9  10
TORSDOF 3
