REMARK  Name = SANCDB_01016_minRM1.pdb
AUTHORGENERATED BY OPEN BABEL 2.3.2
REMARK  9 active torsions:
REMARK  status: ('A' for Active; 'I' for Inactive)
REMARK    1  A    between atoms: C_1  and  O_2
REMARK    2  A    between atoms: O_2  and  C_3
REMARK    3  A    between atoms: C_5  and  O_21
REMARK    4  A    between atoms: C_6  and  C_10
REMARK    5  A    between atoms: C_7  and  O_9
REMARK    6  A    between atoms: C_10  and  C_12
REMARK    7  A    between atoms: C_12  and  C_13
REMARK    8  A    between atoms: C_13  and  C_14
REMARK    9  A    between atoms: C_17  and  O_20
REMARK                            x       y       z     vdW  Elec       q    Type
REMARK                         _______ _______ _______ _____ _____    ______ ____
ROOT
ATOM      1  C   UNL     1       4.269   0.895   0.333  1.00  0.00    +0.000 A 
ATOM      2  C   UNL     1       4.214  -0.446  -0.030  1.00  0.00    +0.000 A 
ATOM      3  C   UNL     1       2.998  -1.014  -0.421  1.00  0.00    +0.000 A 
ATOM      4  C   UNL     1       1.806  -0.265  -0.448  1.00  0.00    +0.000 A 
ATOM      5  C   UNL     1       1.882   1.088  -0.095  1.00  0.00    +0.000 A 
ATOM      6  C   UNL     1       3.100   1.659   0.295  1.00  0.00    +0.000 A 
ENDROOT
BRANCH   1   8
ATOM      7  C   UNL     1       6.601   0.843   0.785  1.00  0.00    +0.000 C 
ATOM      8  O   UNL     1       5.384   1.578   0.733  1.00  0.00    +0.000 OA
ENDBRANCH   1   8
BRANCH   5   9
ATOM      9  O   UNL     1       0.779   1.895  -0.139  1.00  0.00    +0.000 OA
ATOM     10  H   UNL     1       1.026   2.803   0.111  1.00  0.00    +0.000 HD
ENDBRANCH   5   9
BRANCH   4  11
ATOM     11  C   UNL     1       0.538  -0.953  -0.851  1.00  0.00    +0.000 C 
ATOM     12  O   UNL     1       0.631  -2.048  -1.413  1.00  0.00    +0.000 OA
BRANCH  11  13
ATOM     13  C   UNL     1      -0.809  -0.328  -0.547  1.00  0.00    +0.000 C 
BRANCH  13  14
ATOM     14  C   UNL     1      -1.946  -1.337  -0.720  1.00  0.00    +0.000 C 
BRANCH  14  15
ATOM     15  C   UNL     1      -3.282  -0.733  -0.362  1.00  0.00    +0.000 A 
ATOM     16  C   UNL     1      -4.011  -0.010  -1.316  1.00  0.00    +0.000 A 
ATOM     17  C   UNL     1      -5.237   0.565  -0.980  1.00  0.00    +0.000 A 
ATOM     18  C   UNL     1      -5.735   0.421   0.309  1.00  0.00    +0.000 A 
ATOM     19  C   UNL     1      -5.025  -0.289   1.272  1.00  0.00    +0.000 A 
ATOM     20  C   UNL     1      -3.797  -0.864   0.935  1.00  0.00    +0.000 A 
BRANCH  18  21
ATOM     21  O   UNL     1      -6.937   0.999   0.595  1.00  0.00    +0.000 OA
ATOM     22  H   UNL     1      -7.163   0.797   1.517  1.00  0.00    +0.000 HD
ENDBRANCH  18  21
ENDBRANCH  14  15
ENDBRANCH  13  14
ENDBRANCH  11  13
ENDBRANCH   4  11
BRANCH   3  23
ATOM     23  O   UNL     1       3.062  -2.342  -0.768  1.00  0.00    +0.000 OA
ATOM     24  H   UNL     1       2.187  -2.599  -1.138  1.00  0.00    +0.000 HD
ENDBRANCH   3  23
TORSDOF 8
