REMARK  Name = [H][C@@]34CC[C@@H](C)[C@@](C)(CC[C@@]12O[C@H](CC[C@@H]1C)[C@]2(C)CCC(=O)C(C)...
REMARK  16 active torsions:
REMARK  status: ('A' for Active; 'I' for Inactive)
REMARK    1  A    between atoms: C_2  and  C_26
REMARK    2  A    between atoms: C_3  and  C_26
REMARK    3  A    between atoms: C_4  and  C_27
REMARK    4  A    between atoms: C_5  and  C_28
REMARK    5  A    between atoms: C_6  and  C_31
REMARK    6  A    between atoms: C_7  and  C_31
REMARK    7  A    between atoms: C_8  and  C_33
REMARK    8  A    between atoms: C_9  and  C_34
REMARK    9  A    between atoms: O_11  and  C_29
REMARK   10  A    between atoms: C_13  and  C_18
REMARK   11  A    between atoms: C_13  and  C_24
REMARK   12  A    between atoms: C_18  and  C_34
REMARK   13  A    between atoms: C_20  and  C_21
REMARK   14  A    between atoms: C_20  and  C_33
REMARK   15  A    between atoms: C_21  and  C_35
REMARK   16  A    between atoms: C_24  and  C_26
REMARK                            x       y       z     vdW  Elec       q    Type
REMARK                         _______ _______ _______ _____ _____    ______ ____
ROOT
ATOM      1  C   UNL     1       1.040  -2.265  -0.145  1.00  0.00    +0.000 C 
ENDROOT
BRANCH   1  16
ATOM      2  C   UNL     1       2.414  -1.690   2.586  1.00  0.00    +0.000 C 
ATOM      3  C   UNL     1       4.193   4.077  -1.000  1.00  0.00    +0.000 C 
ATOM      4  C   UNL     1       4.163   1.851  -2.043  1.00  0.00    +0.000 C 
ATOM      5  C   UNL     1       3.237  -1.927  -1.262  1.00  0.00    +0.000 C 
ATOM      6  C   UNL     1       1.264   0.610  -0.968  1.00  0.00    +0.000 C 
ATOM      7  C   UNL     1       0.889   2.052  -1.028  1.00  0.00    +0.000 C 
ATOM      8  C   UNL     1       4.542  -1.125   1.369  1.00  0.00    +0.000 C 
ATOM      9  C   UNL     1       4.554   0.313   0.858  1.00  0.00    +0.000 C 
ATOM     10  O   UNL     1       3.342   2.314   0.302  1.00  0.00    +0.000 OA
ATOM     11  C   UNL     1       2.220   0.083  -0.172  1.00  0.00    +0.000 C 
ATOM     12  C   UNL     1       3.183  -1.848   1.266  1.00  0.00    +0.000 C 
ATOM     13  C   UNL     1       1.942   3.024  -1.566  1.00  0.00    +0.000 C 
ATOM     14  C   UNL     1       3.393   2.755  -1.062  1.00  0.00    +0.000 C 
ATOM     15  C   UNL     1       3.170   0.938   0.666  1.00  0.00    +0.000 C 
ATOM     16  C   UNL     1       2.392  -1.456  -0.039  1.00  0.00    +0.000 C 
BRANCH  13  17
ATOM     17  O   UNL     1       1.490   4.335  -1.171  1.00  0.00    +0.000 OA
ATOM     18  H   UNL     1       1.580   4.370  -0.199  1.00  0.00    +0.000 HD
ENDBRANCH  13  17
ENDBRANCH   1  16
BRANCH   1  19
ATOM     19  C   UNL     1      -0.139  -1.831   0.749  1.00  0.00    +0.000 C 
BRANCH  19  28
ATOM     20  C   UNL     1      -1.476  -4.594   0.892  1.00  0.00    +0.000 C 
ATOM     21  C   UNL     1      -3.701  -1.980   1.696  1.00  0.00    +0.000 C 
ATOM     22  C   UNL     1      -3.115  -3.860  -0.885  1.00  0.00    +0.000 C 
ATOM     23  C   UNL     1      -3.752  -2.595  -1.458  1.00  0.00    +0.000 C 
ATOM     24  O   UNL     1      -1.689  -1.354  -1.133  1.00  0.00    +0.000 OA
ATOM     25  C   UNL     1      -1.717  -3.634  -0.273  1.00  0.00    +0.000 C 
ATOM     26  C   UNL     1      -3.133  -1.346  -0.843  1.00  0.00    +0.000 C 
ATOM     27  C   UNL     1      -2.777  -1.306   0.689  1.00  0.00    +0.000 C 
ATOM     28  C   UNL     1      -1.516  -2.140   0.121  1.00  0.00    +0.000 C 
BRANCH  27  29
ATOM     29  C   UNL     1      -2.440   0.139   1.163  1.00  0.00    +0.000 C 
BRANCH  29  30
ATOM     30  C   UNL     1      -3.671   1.034   1.307  1.00  0.00    +0.000 C 
BRANCH  30  32
ATOM     31  O   UNL     1      -2.583   2.693   2.648  1.00  0.00    +0.000 OA
ATOM     32  C   UNL     1      -3.253   2.456   1.639  1.00  0.00    +0.000 C 
BRANCH  32  35
ATOM     33  C   UNL     1      -5.200   3.707   0.655  1.00  0.00    +0.000 C 
ATOM     34  C   UNL     1      -3.066   3.427  -0.671  1.00  0.00    +0.000 C 
ATOM     35  C   UNL     1      -3.682   3.588   0.713  1.00  0.00    +0.000 C 
ENDBRANCH  32  35
ENDBRANCH  30  32
ENDBRANCH  29  30
ENDBRANCH  27  29
ENDBRANCH  19  28
ENDBRANCH   1  19
TORSDOF 8
