REMARK  Name = /srv/my_project/app/compsite/backup/Dave/CORINA_stuff/newPDBs/SANC00371.pdb
AUTHORGENERATED BY OPEN BABEL 2.3.2
REMARK  12 active torsions:
REMARK  status: ('A' for Active; 'I' for Inactive)
REMARK    1  A    between atoms: C_1  and  C_2
REMARK    2  A    between atoms: C_2  and  C_3
REMARK    3  A    between atoms: C_4  and  C_5
REMARK    4  A    between atoms: C_5  and  O_7
REMARK    5  A    between atoms: O_7  and  C_8
REMARK    6  A    between atoms: C_8  and  C_9
REMARK    7  A    between atoms: C_9  and  C_10
REMARK    8  A    between atoms: C_14  and  C_15
REMARK    9  A    between atoms: C_21  and  C_22
REMARK   10  A    between atoms: C_22  and  C_23
REMARK   11  A    between atoms: C_22  and  C_24
REMARK   12  A    between atoms: C_27  and  O_28
REMARK                            x       y       z     vdW  Elec       q    Type
REMARK                         _______ _______ _______ _____ _____    ______ ____
ROOT
ATOM      1  C   UNL     1       1.469   1.120   0.078  1.00  0.00    +0.000 C 
ATOM      2  C   UNL     1       1.756   2.614  -0.251  1.00  0.00    +0.000 C 
ATOM      3  C   UNL     1       2.109   0.279  -1.056  1.00  0.00    +0.000 C 
ATOM      4  C   UNL     1       1.204   0.196  -2.272  1.00  0.00    +0.000 C 
ATOM      5  C   UNL     1      -0.123  -0.500  -1.964  1.00  0.00    +0.000 C 
ATOM      6  C   UNL     1      -0.649  -0.397  -0.498  1.00  0.00    +0.000 C 
ATOM      7  C   UNL     1      -0.212  -1.630   0.338  1.00  0.00    +0.000 C 
ATOM      8  C   UNL     1      -0.058   0.867   0.177  1.00  0.00    +0.000 C 
ATOM      9  C   UNL     1      -0.858   1.733   0.828  1.00  0.00    +0.000 C 
ATOM     10  C   UNL     1      -2.279   1.562   0.913  1.00  0.00    +0.000 C 
ATOM     11  C   UNL     1      -2.942   0.579   0.283  1.00  0.00    +0.000 C 
ATOM     12  C   UNL     1      -4.393   0.537   0.406  1.00  0.00    +0.000 C 
ATOM     13  C   UNL     1      -5.148  -0.366  -0.241  1.00  0.00    +0.000 C 
ATOM     14  C   UNL     1      -4.444  -1.352  -1.112  1.00  0.00    +0.000 C 
ATOM     15  O   UNL     1      -5.045  -2.197  -1.776  1.00  0.00    +0.000 OA
ATOM     16  C   UNL     1      -2.947  -1.341  -1.172  1.00  0.00    +0.000 C 
ATOM     17  C   UNL     1      -2.213  -0.424  -0.503  1.00  0.00    +0.000 C 
ENDROOT
BRANCH  13  18
ATOM     18  C   UNL     1      -6.661  -0.464  -0.193  1.00  0.00    +0.000 C 
ATOM     19  C   UNL     1      -7.094  -1.574   0.770  1.00  0.00    +0.000 C 
ATOM     20  C   UNL     1      -7.373   0.844   0.176  1.00  0.00    +0.000 C 
ENDBRANCH  13  18
BRANCH  16  21
ATOM     21  O   UNL     1      -2.378  -2.345  -1.940  1.00  0.00    +0.000 OA
ATOM     22  H   UNL     1      -3.142  -2.845  -2.301  1.00  0.00    +0.000 HD
ENDBRANCH  16  21
BRANCH   1  23
ATOM     23  C   UNL     1       2.151   0.782   1.435  1.00  0.00    +0.000 C 
BRANCH  23  24
ATOM     24  O   UNL     1       3.560   1.081   1.402  1.00  0.00    +0.000 OA
BRANCH  24  25
ATOM     25  C   UNL     1       4.407   0.020   1.382  1.00  0.00    +0.000 C 
ATOM     26  O   UNL     1       4.096  -1.157   1.397  1.00  0.00    +0.000 OA
BRANCH  25  30
ATOM     27  C   UNL     1       8.247   0.562   1.076  1.00  0.00    +0.000 C 
ATOM     28  C   UNL     1       6.903  -0.116   1.015  1.00  0.00    +0.000 C 
ATOM     29  C   UNL     1       6.957  -1.550   0.561  1.00  0.00    +0.000 C 
ATOM     30  C   UNL     1       5.787   0.563   1.344  1.00  0.00    +0.000 C 
ENDBRANCH  25  30
ENDBRANCH  24  25
ENDBRANCH  23  24
ENDBRANCH   1  23
TORSDOF 6
