REMARK  Name = SANCDB_01125_minRM1.pdb
AUTHORGENERATED BY OPEN BABEL 2.3.2
REMARK  11 active torsions:
REMARK  status: ('A' for Active; 'I' for Inactive)
REMARK    1  A    between atoms: C_1  and  C_2
REMARK    2  A    between atoms: C_2  and  C_33
REMARK    3  A    between atoms: C_5  and  C_30
REMARK    4  A    between atoms: C_8  and  C_29
REMARK    5  A    between atoms: C_13  and  C_26
REMARK    6  A    between atoms: C_17  and  C_25
REMARK    7  A    between atoms: C_20  and  O_24
REMARK    8  A    between atoms: C_21  and  C_22
REMARK    9  A    between atoms: C_21  and  C_23
REMARK   10  A    between atoms: C_30  and  O_32
REMARK   11  A    between atoms: C_33  and  O_35
REMARK                            x       y       z     vdW  Elec       q    Type
REMARK                         _______ _______ _______ _____ _____    ______ ____
ROOT
ATOM      1  C   UNL     1      -5.453   1.820  -1.943  1.00  0.00    +0.000 C 
ATOM      2  C   UNL     1      -5.297   1.306  -0.496  1.00  0.00    +0.000 C 
ATOM      3  C   UNL     1      -5.974  -0.085  -0.401  1.00  0.00    +0.000 C 
ATOM      4  C   UNL     1      -5.289  -1.011   0.608  1.00  0.00    +0.000 C 
ATOM      5  C   UNL     1      -3.795  -1.285   0.266  1.00  0.00    +0.000 C 
ATOM      6  C   UNL     1      -3.038  -1.533   1.591  1.00  0.00    +0.000 C 
ATOM      7  C   UNL     1      -1.537  -1.720   1.376  1.00  0.00    +0.000 C 
ATOM      8  C   UNL     1      -0.828  -0.501   0.718  1.00  0.00    +0.000 C 
ATOM      9  C   UNL     1      -1.625  -0.041  -0.514  1.00  0.00    +0.000 C 
ATOM     10  C   UNL     1      -1.007   0.405  -1.626  1.00  0.00    +0.000 C 
ATOM     11  C   UNL     1       0.473   0.527  -1.828  1.00  0.00    +0.000 C 
ATOM     12  C   UNL     1       1.312   0.293  -0.554  1.00  0.00    +0.000 C 
ATOM     13  C   UNL     1       0.710  -0.886   0.305  1.00  0.00    +0.000 C 
ATOM     14  C   UNL     1       1.589  -1.112   1.568  1.00  0.00    +0.000 C 
ATOM     15  C   UNL     1       3.095  -1.167   1.304  1.00  0.00    +0.000 C 
ATOM     16  C   UNL     1       3.572   0.129   0.617  1.00  0.00    +0.000 C 
ATOM     17  C   UNL     1       2.890   0.294  -0.791  1.00  0.00    +0.000 C 
ATOM     18  C   UNL     1       3.302   1.685  -1.364  1.00  0.00    +0.000 C 
ATOM     19  C   UNL     1       4.806   1.949  -1.357  1.00  0.00    +0.000 C 
ATOM     20  C   UNL     1       5.422   1.765   0.027  1.00  0.00    +0.000 C 
ATOM     21  C   UNL     1       5.124   0.380   0.671  1.00  0.00    +0.000 C 
ATOM     22  C   UNL     1       5.964  -0.740   0.024  1.00  0.00    +0.000 C 
ATOM     23  C   UNL     1       5.590   0.458   2.153  1.00  0.00    +0.000 C 
ATOM     24  C   UNL     1       3.342  -0.778  -1.815  1.00  0.00    +0.000 C 
ATOM     25  C   UNL     1       0.716  -2.218  -0.503  1.00  0.00    +0.000 C 
ATOM     26  C   UNL     1      -3.159  -0.099  -0.519  1.00  0.00    +0.000 C 
ATOM     27  C   UNL     1      -3.799   1.245  -0.110  1.00  0.00    +0.000 C 
ATOM     28  C   UNL     1      -0.863   0.669   1.747  1.00  0.00    +0.000 C 
ENDROOT
BRANCH  20  29
ATOM     29  O   UNL     1       6.830   1.981  -0.066  1.00  0.00    +0.000 OA
ATOM     30  H   UNL     1       6.968   2.872  -0.430  1.00  0.00    +0.000 HD
ENDBRANCH  20  29
BRANCH   5  31
ATOM     31  C   UNL     1      -3.785  -2.534  -0.628  1.00  0.00    +0.000 C 
ATOM     32  O   UNL     1      -3.844  -2.561  -1.847  1.00  0.00    +0.000 OA
BRANCH  31  33
ATOM     33  O   UNL     1      -3.796  -3.698   0.051  1.00  0.00    +0.000 OA
ATOM     34  H   UNL     1      -3.822  -4.379  -0.654  1.00  0.00    +0.000 HD
ENDBRANCH  31  33
ENDBRANCH   5  31
BRANCH   2  35
ATOM     35  C   UNL     1      -5.988   2.311   0.425  1.00  0.00    +0.000 C 
ATOM     36  O   UNL     1      -6.320   3.452   0.147  1.00  0.00    +0.000 OA
BRANCH  35  37
ATOM     37  O   UNL     1      -6.191   1.849   1.675  1.00  0.00    +0.000 OA
ATOM     38  H   UNL     1      -6.615   2.604   2.135  1.00  0.00    +0.000 HD
ENDBRANCH  35  37
ENDBRANCH   2  35
TORSDOF 5
