REMARK  Name = /srv/my_project/app/compsite/backup/Dave/CORINA_stuff/newPDBs/SANC00189.pdb
AUTHORGENERATED BY OPEN BABEL 2.3.2
REMARK  8 active torsions:
REMARK  status: ('A' for Active; 'I' for Inactive)
REMARK    1  A    between atoms: O_1  and  C_2
REMARK    2  A    between atoms: C_2  and  C_4
REMARK    3  A    between atoms: C_2  and  C_26
REMARK    4  A    between atoms: C_4  and  C_5
REMARK    5  A    between atoms: C_13  and  C_14
REMARK    6  A    between atoms: C_18  and  C_19
REMARK    7  A    between atoms: C_18  and  C_20
REMARK    8  A    between atoms: C_24  and  C_25
REMARK                            x       y       z     vdW  Elec       q    Type
REMARK                         _______ _______ _______ _____ _____    ______ ____
ROOT
ATOM      1  C   UNL     1       1.875  -0.519   0.109  1.00  0.00    +0.000 C 
ATOM      2  C   UNL     1       2.210  -1.969   0.479  1.00  0.00    +0.000 C 
ATOM      3  C   UNL     1       3.127  -2.757  -0.108  1.00  0.00    +0.000 C 
ATOM      4  C   UNL     1       1.341  -2.525   1.579  1.00  0.00    +0.000 C 
ATOM      5  C   UNL     1      -0.135  -2.461   1.184  1.00  0.00    +0.000 C 
ATOM      6  C   UNL     1      -0.554  -1.029   0.770  1.00  0.00    +0.000 C 
ATOM      7  C   UNL     1      -2.120  -0.822   0.596  1.00  0.00    +0.000 C 
ATOM      8  C   UNL     1      -2.681  -1.706  -0.543  1.00  0.00    +0.000 C 
ATOM      9  C   UNL     1      -2.845  -1.233   1.914  1.00  0.00    +0.000 C 
ATOM     10  C   UNL     1      -4.309  -0.799   1.993  1.00  0.00    +0.000 C 
ATOM     11  C   UNL     1      -4.480   0.696   1.768  1.00  0.00    +0.000 C 
ATOM     12  C   UNL     1      -3.842   1.214   0.456  1.00  0.00    +0.000 C 
ATOM     13  C   UNL     1      -3.889   2.763   0.524  1.00  0.00    +0.000 C 
ATOM     14  C   UNL     1      -4.702   0.807  -0.755  1.00  0.00    +0.000 C 
ATOM     15  C   UNL     1      -2.353   0.721   0.384  1.00  0.00    +0.000 C 
ATOM     16  C   UNL     1      -1.564   1.241  -0.829  1.00  0.00    +0.000 C 
ATOM     17  C   UNL     1      -0.059   1.011  -0.669  1.00  0.00    +0.000 C 
ATOM     18  C   UNL     1       0.360  -0.459  -0.397  1.00  0.00    +0.000 C 
ATOM     19  C   UNL     1       0.249  -1.250  -1.723  1.00  0.00    +0.000 C 
ENDROOT
BRANCH   1  20
ATOM     20  C   UNL     1       2.898   0.196  -0.827  1.00  0.00    +0.000 C 
BRANCH  20  21
ATOM     21  C   UNL     1       4.164   0.695  -0.098  1.00  0.00    +0.000 C 
BRANCH  21  22
ATOM     22  C   UNL     1       4.980   1.593  -0.966  1.00  0.00    +0.000 C 
ATOM     23  C   UNL     1       5.705   1.096  -2.155  1.00  0.00    +0.000 C 
ATOM     24  O   UNL     1       6.338   2.259  -2.692  1.00  0.00    +0.000 OA
ATOM     25  C   UNL     1       6.055   3.326  -1.900  1.00  0.00    +0.000 C 
ATOM     26  O   UNL     1       6.443   4.467  -2.070  1.00  0.00    +0.000 OA
ATOM     27  C   UNL     1       5.190   2.898  -0.803  1.00  0.00    +0.000 C 
ENDBRANCH  21  22
BRANCH  21  28
ATOM     28  O   UNL     1       5.019  -0.367   0.289  1.00  0.00    +0.000 OA
ATOM     29  H   UNL     1       4.555  -0.876   0.977  1.00  0.00    +0.000 HD
ENDBRANCH  21  28
ENDBRANCH  20  21
ENDBRANCH   1  20
TORSDOF 4
