REMARK  Name = SANCDB_00911_minRM1.pdb
AUTHORGENERATED BY OPEN BABEL 2.3.2
REMARK  3 active torsions:
REMARK  status: ('A' for Active; 'I' for Inactive)
REMARK    1  A    between atoms: C_1  and  C_2
REMARK    2  A    between atoms: C_8  and  C_9
REMARK    3  A    between atoms: C_8  and  C_10
REMARK                            x       y       z     vdW  Elec       q    Type
REMARK                         _______ _______ _______ _____ _____    ______ ____
ROOT
ATOM      1  C   UNL     1       3.178   0.863  -0.199  1.00  0.00    +0.000 C 
ATOM      2  C   UNL     1       1.866   0.142  -0.082  1.00  0.00    +0.000 C 
ATOM      3  C   UNL     1       1.553  -0.897  -0.877  1.00  0.00    +0.000 C 
ATOM      4  C   UNL     1       0.256  -1.652  -0.816  1.00  0.00    +0.000 C 
ATOM      5  C   UNL     1      -0.711  -1.236   0.254  1.00  0.00    +0.000 C 
ATOM      6  C   UNL     1      -0.373  -0.072   1.157  1.00  0.00    +0.000 C 
ATOM      7  C   UNL     1       0.925   0.667   0.978  1.00  0.00    +0.000 C 
ATOM      8  C   UNL     1      -1.542   0.042   0.183  1.00  0.00    +0.000 C 
ATOM      9  C   UNL     1      -1.454   0.949  -1.019  1.00  0.00    +0.000 C 
ATOM     10  C   UNL     1      -2.932  -0.013   0.774  1.00  0.00    +0.000 C 
ENDROOT
TORSDOF 0
