REMARK  Name = /srv/my_project/app/compsite/backup/Dave/CORINA_stuff/newPDBs/SANC00314.pdb
AUTHORGENERATED BY OPEN BABEL 2.3.2
REMARK  9 active torsions:
REMARK  status: ('A' for Active; 'I' for Inactive)
REMARK    1  A    between atoms: C_3  and  O_5
REMARK    2  A    between atoms: C_6  and  C_7
REMARK    3  A    between atoms: C_12  and  C_14
REMARK    4  A    between atoms: C_19  and  C_21
REMARK    5  A    between atoms: C_23  and  C_24
REMARK    6  A    between atoms: C_24  and  C_25
REMARK    7  A    between atoms: C_24  and  C_26
REMARK    8  A    between atoms: C_24  and  O_27
REMARK    9  A    between atoms: C_28  and  O_29
REMARK                            x       y       z     vdW  Elec       q    Type
REMARK                         _______ _______ _______ _____ _____    ______ ____
ROOT
ATOM      1  C   UNL     1      -0.449   0.998  -0.534  1.00  0.00    +0.000 C 
ATOM      2  C   UNL     1      -1.087   2.111   0.347  1.00  0.00    +0.000 C 
ATOM      3  C   UNL     1      -0.902   1.649   1.832  1.00  0.00    +0.000 C 
ATOM      4  C   UNL     1      -1.312   2.740   2.814  1.00  0.00    +0.000 C 
ATOM      5  C   UNL     1      -1.684   0.375   2.048  1.00  0.00    +0.000 C 
ATOM      6  C   UNL     1      -1.840  -0.478   1.026  1.00  0.00    +0.000 C 
ATOM      7  C   UNL     1      -2.998  -1.408   0.947  1.00  0.00    +0.000 C 
ATOM      8  O   UNL     1      -3.570  -1.886   1.912  1.00  0.00    +0.000 OA
ATOM      9  C   UNL     1      -3.377  -1.594  -0.507  1.00  0.00    +0.000 C 
ATOM     10  C   UNL     1      -4.864  -1.410  -0.746  1.00  0.00    +0.000 C 
ATOM     11  C   UNL     1      -2.523  -0.500  -1.204  1.00  0.00    +0.000 C 
ATOM     12  C   UNL     1      -1.231  -0.353  -0.348  1.00  0.00    +0.000 C 
ATOM     13  C   UNL     1      -0.382  -1.581  -0.729  1.00  0.00    +0.000 C 
ATOM     14  O   UNL     1      -0.456  -2.650  -0.122  1.00  0.00    +0.000 OA
ATOM     15  C   UNL     1       0.567  -1.410  -1.899  1.00  0.00    +0.000 C 
ATOM     16  C   UNL     1       0.577  -2.650  -2.789  1.00  0.00    +0.000 C 
ATOM     17  C   UNL     1       1.950  -1.101  -1.333  1.00  0.00    +0.000 C 
ATOM     18  C   UNL     1       1.943  -0.255  -0.023  1.00  0.00    +0.000 C 
ATOM     19  C   UNL     1       1.103   1.051  -0.170  1.00  0.00    +0.000 C 
ATOM     20  O   UNL     1       1.273   1.875   0.997  1.00  0.00    +0.000 OA
ATOM     21  O   UNL     1       0.471   1.287   2.069  1.00  0.00    +0.000 OA
ENDROOT
BRANCH  18  22
ATOM     22  C   UNL     1       3.422  -0.105   0.523  1.00  0.00    +0.000 C 
ATOM     23  C   UNL     1       3.509   0.352   1.987  1.00  0.00    +0.000 C 
ATOM     24  C   UNL     1       4.339   0.779  -0.327  1.00  0.00    +0.000 C 
BRANCH  22  25
ATOM     25  O   UNL     1       4.031  -1.414   0.507  1.00  0.00    +0.000 OA
ATOM     26  H   UNL     1       3.543  -1.982   1.130  1.00  0.00    +0.000 HD
ENDBRANCH  22  25
ENDBRANCH  18  22
BRANCH   2  27
ATOM     27  O   UNL     1      -2.450   2.364   0.011  1.00  0.00    +0.000 OA
ATOM     28  H   UNL     1      -2.461   2.885  -0.812  1.00  0.00    +0.000 HD
ENDBRANCH   2  27
BRANCH  19  29
ATOM     29  O   UNL     1       1.659   1.812  -1.249  1.00  0.00    +0.000 OA
ATOM     30  H   UNL     1       2.189   2.503  -0.813  1.00  0.00    +0.000 HD
ENDBRANCH  19  29
TORSDOF 4
