REMARK  Name = /srv/my_project/app/compsite/backup/Dave/CORINA_stuff/newPDBs/SANC00396.pdb
AUTHORGENERATED BY OPEN BABEL 2.3.2
REMARK  32 active torsions:
REMARK  status: ('A' for Active; 'I' for Inactive)
REMARK    1  A    between atoms: C_2  and  O_3
REMARK    2  A    between atoms: O_3  and  C_4
REMARK    3  A    between atoms: C_15  and  O_17
REMARK    4  A    between atoms: C_19  and  O_21
REMARK    5  A    between atoms: O_21  and  C_22
REMARK    6  A    between atoms: C_25  and  C_27
REMARK    7  A    between atoms: C_27  and  O_28
REMARK    8  A    between atoms: O_28  and  C_29
REMARK    9  A    between atoms: C_32  and  C_34
REMARK   10  A    between atoms: C_34  and  O_35
REMARK   11  A    between atoms: C_36  and  O_38
REMARK   12  A    between atoms: C_39  and  O_41
REMARK   13  A    between atoms: C_42  and  O_44
REMARK   14  A    between atoms: C_45  and  O_47
REMARK   15  A    between atoms: C_48  and  O_50
REMARK   16  A    between atoms: C_51  and  O_53
REMARK   17  A    between atoms: C_54  and  C_55
REMARK   18  A    between atoms: C_60  and  C_61
REMARK   19  A    between atoms: C_62  and  C_64
REMARK   20  A    between atoms: C_64  and  C_66
REMARK   21  A    between atoms: C_64  and  C_67
REMARK   22  A    between atoms: C_67  and  O_69
REMARK   23  A    between atoms: C_67  and  C_70
REMARK   24  A    between atoms: C_70  and  C_71
REMARK   25  A    between atoms: C_71  and  C_72
REMARK   26  A    between atoms: C_72  and  C_73
REMARK   27  A    between atoms: C_72  and  C_74
REMARK   28  A    between atoms: C_76  and  C_78
REMARK   29  A    between atoms: C_78  and  O_79
REMARK   30  A    between atoms: C_80  and  O_82
REMARK   31  A    between atoms: C_83  and  O_85
REMARK   32  A    between atoms: C_86  and  O_88
REMARK                            x       y       z     vdW  Elec       q    Type
REMARK                         _______ _______ _______ _____ _____    ______ ____
ROOT
ATOM      1  C   UNL     1      -4.661   1.741  -0.367  1.00  0.00    +0.000 C 
ATOM      2  C   UNL     1      -3.257   2.356  -0.140  1.00  0.00    +0.000 C 
ATOM      3  C   UNL     1      -2.308   1.373  -0.820  1.00  0.00    +0.000 C 
ATOM      4  C   UNL     1      -0.805   1.479  -0.530  1.00  0.00    +0.000 C 
ATOM      5  C   UNL     1      -0.278   2.874  -0.897  1.00  0.00    +0.000 C 
ATOM      6  C   UNL     1       1.204   2.934  -1.089  1.00  0.00    +0.000 C 
ATOM      7  C   UNL     1       2.010   1.861  -1.150  1.00  0.00    +0.000 C 
ATOM      8  C   UNL     1       3.470   2.013  -1.497  1.00  0.00    +0.000 C 
ATOM      9  C   UNL     1       3.742   1.432  -2.893  1.00  0.00    +0.000 C 
ATOM     10  C   UNL     1       2.778   0.296  -3.271  1.00  0.00    +0.000 C 
ATOM     11  C   UNL     1       2.298  -0.507  -2.044  1.00  0.00    +0.000 C 
ATOM     12  C   UNL     1       1.515   0.408  -1.010  1.00  0.00    +0.000 C 
ATOM     13  C   UNL     1       1.812  -0.035   0.446  1.00  0.00    +0.000 C 
ATOM     14  C   UNL     1      -0.040   0.360  -1.307  1.00  0.00    +0.000 C 
ATOM     15  C   UNL     1      -0.688  -1.036  -1.073  1.00  0.00    +0.000 C 
ATOM     16  C   UNL     1      -2.207  -1.058  -1.319  1.00  0.00    +0.000 C 
ATOM     17  C   UNL     1      -2.927  -0.004  -0.469  1.00  0.00    +0.000 C 
ATOM     18  C   UNL     1      -2.779  -0.349   1.033  1.00  0.00    +0.000 C 
ATOM     19  C   UNL     1      -4.398   0.292  -0.898  1.00  0.00    +0.000 C 
ENDROOT
BRANCH  19  20
ATOM     20  C   UNL     1      -5.517  -0.790  -0.797  1.00  0.00    +0.000 C 
ATOM     21  C   UNL     1      -6.833  -0.207  -1.349  1.00  0.00    +0.000 C 
BRANCH  20  22
ATOM     22  C   UNL     1      -5.742  -1.521   0.551  1.00  0.00    +0.000 C 
BRANCH  22  23
ATOM     23  O   UNL     1      -6.184  -0.653   1.583  1.00  0.00    +0.000 OA
ATOM     24  H   UNL     1      -5.813   0.234   1.410  1.00  0.00    +0.000 HD
ENDBRANCH  22  23
BRANCH  22  25
ATOM     25  C   UNL     1      -6.764  -2.672   0.442  1.00  0.00    +0.000 C 
BRANCH  25  26
ATOM     26  C   UNL     1      -6.779  -3.544   1.708  1.00  0.00    +0.000 C 
BRANCH  26  27
ATOM     27  C   UNL     1      -7.755  -4.736   1.676  1.00  0.00    +0.000 C 
ATOM     28  C   UNL     1      -9.213  -4.293   1.551  1.00  0.00    +0.000 C 
ATOM     29  C   UNL     1      -7.408  -5.745   0.582  1.00  0.00    +0.000 C 
ENDBRANCH  26  27
ENDBRANCH  25  26
ENDBRANCH  22  25
ENDBRANCH  20  22
ENDBRANCH  19  20
BRANCH   9  30
ATOM     30  O   UNL     1       5.084   0.947  -2.976  1.00  0.00    +0.000 OA
ATOM     31  H   UNL     1       5.673   1.639  -2.628  1.00  0.00    +0.000 HD
ENDBRANCH   9  30
BRANCH  11  32
ATOM     32  O   UNL     1       3.465  -1.091  -1.443  1.00  0.00    +0.000 OA
BRANCH  32  33
ATOM     33  C   UNL     1       3.408  -2.501  -1.272  1.00  0.00    +0.000 C 
ATOM     34  O   UNL     1       4.309  -2.899  -0.231  1.00  0.00    +0.000 OA
ATOM     35  C   UNL     1       5.687  -2.538  -0.468  1.00  0.00    +0.000 C 
ATOM     36  C   UNL     1       6.085  -2.568  -1.958  1.00  0.00    +0.000 C 
ATOM     37  C   UNL     1       5.229  -3.619  -2.660  1.00  0.00    +0.000 C 
ATOM     38  C   UNL     1       3.739  -3.263  -2.579  1.00  0.00    +0.000 C 
BRANCH  36  39
ATOM     39  O   UNL     1       7.473  -2.918  -2.122  1.00  0.00    +0.000 OA
ATOM     40  H   UNL     1       7.540  -3.144  -3.077  1.00  0.00    +0.000 HD
ENDBRANCH  36  39
BRANCH  38  41
ATOM     41  O   UNL     1       2.993  -4.493  -2.671  1.00  0.00    +0.000 OA
ATOM     42  H   UNL     1       3.128  -4.980  -1.836  1.00  0.00    +0.000 HD
ENDBRANCH  38  41
BRANCH  37  43
ATOM     43  O   UNL     1       5.651  -3.746  -4.028  1.00  0.00    +0.000 OA
ATOM     44  H   UNL     1       5.009  -4.345  -4.456  1.00  0.00    +0.000 HD
ENDBRANCH  37  43
BRANCH  35  45
ATOM     45  C   UNL     1       6.034  -1.204   0.224  1.00  0.00    +0.000 C 
BRANCH  45  46
ATOM     46  O   UNL     1       7.362  -0.761  -0.043  1.00  0.00    +0.000 OA
BRANCH  46  47
ATOM     47  C   UNL     1       8.355  -1.409   0.749  1.00  0.00    +0.000 C 
ATOM     48  O   UNL     1       8.425  -0.836   2.056  1.00  0.00    +0.000 OA
ATOM     49  C   UNL     1       9.248   0.334   2.167  1.00  0.00    +0.000 C 
ATOM     50  C   UNL     1      10.719   0.020   1.796  1.00  0.00    +0.000 C 
ATOM     51  C   UNL     1      10.842  -1.264   0.966  1.00  0.00    +0.000 C 
ATOM     52  C   UNL     1       9.690  -1.358  -0.025  1.00  0.00    +0.000 C 
BRANCH  52  53
ATOM     53  O   UNL     1       9.875  -2.531  -0.840  1.00  0.00    +0.000 OA
ATOM     54  H   UNL     1       9.043  -2.633  -1.360  1.00  0.00    +0.000 HD
ENDBRANCH  52  53
BRANCH  51  55
ATOM     55  O   UNL     1      12.099  -1.254   0.266  1.00  0.00    +0.000 OA
ATOM     56  H   UNL     1      12.008  -1.958  -0.411  1.00  0.00    +0.000 HD
ENDBRANCH  51  55
BRANCH  50  57
ATOM     57  O   UNL     1      11.337   1.109   1.089  1.00  0.00    +0.000 OA
ATOM     58  H   UNL     1      12.110   0.696   0.641  1.00  0.00    +0.000 HD
ENDBRANCH  50  57
BRANCH  49  59
ATOM     59  C   UNL     1       8.638   1.548   1.442  1.00  0.00    +0.000 C 
BRANCH  59  60
ATOM     60  O   UNL     1       9.339   2.750   1.750  1.00  0.00    +0.000 OA
ATOM     61  H   UNL     1      10.268   2.579   1.478  1.00  0.00    +0.000 HD
ENDBRANCH  59  60
ENDBRANCH  49  59
ENDBRANCH  46  47
ENDBRANCH  45  46
ENDBRANCH  35  45
ENDBRANCH  32  33
ENDBRANCH  11  32
BRANCH   1  62
ATOM     62  O   UNL     1      -5.441   1.738   0.821  1.00  0.00    +0.000 OA
BRANCH  62  63
ATOM     63  C   UNL     1      -5.922   3.040   1.195  1.00  0.00    +0.000 C 
ATOM     64  O   UNL     1      -4.936   3.687   2.000  1.00  0.00    +0.000 OA
ATOM     65  C   UNL     1      -5.268   5.064   2.257  1.00  0.00    +0.000 C 
ATOM     66  C   UNL     1      -6.741   5.229   2.706  1.00  0.00    +0.000 C 
ATOM     67  C   UNL     1      -7.314   3.877   3.163  1.00  0.00    +0.000 C 
ATOM     68  C   UNL     1      -7.242   2.867   1.998  1.00  0.00    +0.000 C 
BRANCH  68  69
ATOM     69  O   UNL     1      -8.361   3.055   1.110  1.00  0.00    +0.000 OA
ATOM     70  H   UNL     1      -8.436   4.021   0.962  1.00  0.00    +0.000 HD
ENDBRANCH  68  69
BRANCH  67  71
ATOM     71  O   UNL     1      -6.616   3.412   4.323  1.00  0.00    +0.000 OA
ATOM     72  H   UNL     1      -5.833   2.912   4.021  1.00  0.00    +0.000 HD
ENDBRANCH  67  71
BRANCH  66  73
ATOM     73  O   UNL     1      -7.526   5.686   1.585  1.00  0.00    +0.000 OA
ATOM     74  H   UNL     1      -7.329   6.639   1.488  1.00  0.00    +0.000 HD
ENDBRANCH  66  73
BRANCH  65  75
ATOM     75  C   UNL     1      -4.292   5.589   3.315  1.00  0.00    +0.000 C 
BRANCH  75  76
ATOM     76  O   UNL     1      -4.458   6.992   3.485  1.00  0.00    +0.000 OA
ATOM     77  H   UNL     1      -3.819   7.270   4.166  1.00  0.00    +0.000 HD
ENDBRANCH  75  76
ENDBRANCH  65  75
ENDBRANCH  62  63
ENDBRANCH   1  62
TORSDOF 27
