REMARK  Name = SANCDB_00757_minRM1.pdb
AUTHORGENERATED BY OPEN BABEL 2.3.2
REMARK  4 active torsions:
REMARK  status: ('A' for Active; 'I' for Inactive)
REMARK    1  A    between atoms: C_1  and  O_2
REMARK    2  A    between atoms: O_2  and  C_3
REMARK    3  A    between atoms: C_13  and  O_14
REMARK    4  A    between atoms: O_14  and  C_15
REMARK                            x       y       z     vdW  Elec       q    Type
REMARK                         _______ _______ _______ _____ _____    ______ ____
ROOT
ATOM      1  C   UNL     1      -1.166  -0.776   0.088  1.00  0.00    +0.000 A 
ATOM      2  C   UNL     1       0.034  -1.481  -0.029  1.00  0.00    +0.000 A 
ATOM      3  C   UNL     1       1.224  -0.778  -0.204  1.00  0.00    +0.000 A 
ATOM      4  O   UNL     1       2.408  -1.534  -0.318  1.00  0.00    +0.000 OA
ATOM      5  C   UNL     1       3.640  -0.920  -0.495  1.00  0.00    +0.000 A 
ATOM      6  O   UNL     1       4.682  -1.556  -0.596  1.00  0.00    +0.000 OA
ATOM      7  C   UNL     1       3.647   0.552  -0.556  1.00  0.00    +0.000 A 
ATOM      8  C   UNL     1       2.532   1.281  -0.450  1.00  0.00    +0.000 A 
ATOM      9  C   UNL     1       1.254   0.612  -0.265  1.00  0.00    +0.000 A 
ATOM     10  C   UNL     1       0.056   1.321  -0.148  1.00  0.00    +0.000 A 
ATOM     11  C   UNL     1      -1.156   0.636   0.029  1.00  0.00    +0.000 A 
ENDROOT
BRANCH   1  13
ATOM     12  C   UNL     1      -2.446  -2.781   0.328  1.00  0.00    +0.000 C 
ATOM     13  O   UNL     1      -2.395  -1.363   0.264  1.00  0.00    +0.000 OA
ENDBRANCH   1  13
BRANCH  11  14
ATOM     14  O   UNL     1      -2.379   1.248   0.153  1.00  0.00    +0.000 OA
ATOM     15  C   UNL     1      -2.421   2.667   0.100  1.00  0.00    +0.000 C 
ENDBRANCH  11  14
TORSDOF 2
