REMARK  Name = 
REMARK  1 active torsions:
REMARK  status: ('A' for Active; 'I' for Inactive)
REMARK    1  A    between atoms: C_8  and  O_9
REMARK                            x       y       z     vdW  Elec       q    Type
REMARK                         _______ _______ _______ _____ _____    ______ ____
ROOT
ATOM      1  O   UNL     1      -0.460   1.722  -2.348  1.00  0.00    +0.000 OA
ATOM      2  C   UNL     1      -0.724   1.890  -1.164  1.00  0.00    +0.000 C 
ATOM      3  C   UNL     1       0.110   2.717  -0.212  1.00  0.00    +0.000 C 
ATOM      4  C   UNL     1       1.618   2.592  -0.470  1.00  0.00    +0.000 C 
ATOM      5  C   UNL     1       2.254   1.242  -0.209  1.00  0.00    +0.000 A 
ATOM      6  C   UNL     1       3.424   0.874  -0.890  1.00  0.00    +0.000 A 
ATOM      7  C   UNL     1       4.022  -0.376  -0.676  1.00  0.00    +0.000 A 
ATOM      8  C   UNL     1       3.441  -1.285   0.207  1.00  0.00    +0.000 A 
ATOM      9  C   UNL     1       2.278  -0.941   0.890  1.00  0.00    +0.000 A 
ATOM     10  C   UNL     1       1.730   0.343   0.723  1.00  0.00    +0.000 A 
ATOM     11  O   UNL     1       1.657  -1.886   1.697  1.00  0.00    +0.000 OA
ATOM     12  C   UNL     1       0.291  -1.942   1.504  1.00  0.00    +0.000 A 
ATOM     13  C   UNL     1      -0.544  -1.387   2.469  1.00  0.00    +0.000 A 
ATOM     14  C   UNL     1      -1.870  -1.113   2.134  1.00  0.00    +0.000 A 
ATOM     15  C   UNL     1      -2.378  -1.417   0.858  1.00  0.00    +0.000 A 
ATOM     16  C   UNL     1      -1.554  -2.136  -0.025  1.00  0.00    +0.000 A 
ATOM     17  C   UNL     1      -0.222  -2.394   0.288  1.00  0.00    +0.000 A 
ATOM     18  C   UNL     1      -3.736  -0.935   0.429  1.00  0.00    +0.000 C 
ATOM     19  O   UNL     1      -4.061   0.448   0.692  1.00  0.00    +0.000 OA
ATOM     20  C   UNL     1      -3.896   0.095  -0.681  1.00  0.00    +0.000 C 
ATOM     21  C   UNL     1      -2.751   0.734  -1.416  1.00  0.00    +0.000 C 
ATOM     22  O   UNL     1      -1.848   1.430  -0.543  1.00  0.00    +0.000 OA
ENDROOT
BRANCH   8  23
ATOM     23  O   UNL     1       3.987  -2.524   0.387  1.00  0.00    +0.000 OA
ATOM     24  H   UNL     1       4.797  -2.590  -0.144  1.00  0.00    +0.000 HD
ENDBRANCH   8  23
TORSDOF 1
