REMARK  Name = /srv/my_project/app/compsite/backup/Dave/CORINA_stuff/newPDBs/SANC00533.pdb
AUTHORGENERATED BY OPEN BABEL 2.3.2
REMARK  10 active torsions:
REMARK  status: ('A' for Active; 'I' for Inactive)
REMARK    1  A    between atoms: C_1  and  C_2
REMARK    2  A    between atoms: C_2  and  O_4
REMARK    3  A    between atoms: O_4  and  C_5
REMARK    4  A    between atoms: C_7  and  C_8
REMARK    5  A    between atoms: C_8  and  C_9
REMARK    6  A    between atoms: C_8  and  C_10
REMARK    7  A    between atoms: C_13  and  C_14
REMARK    8  A    between atoms: C_18  and  C_19
REMARK    9  A    between atoms: C_25  and  C_26
REMARK   10  A    between atoms: C_27  and  O_29
REMARK                            x       y       z     vdW  Elec       q    Type
REMARK                         _______ _______ _______ _____ _____    ______ ____
ROOT
ATOM      1  C   UNL     1      -1.913  -1.223   0.262  1.00  0.00    +0.000 C 
ATOM      2  C   UNL     1      -1.824   0.054   1.121  1.00  0.00    +0.000 C 
ATOM      3  C   UNL     1      -1.189   1.233   0.933  1.00  0.00    +0.000 C 
ATOM      4  C   UNL     1      -0.249   1.667  -0.073  1.00  0.00    +0.000 C 
ATOM      5  C   UNL     1       0.498   2.791   0.003  1.00  0.00    +0.000 C 
ATOM      6  C   UNL     1       0.320   3.914   0.992  1.00  0.00    +0.000 C 
ATOM      7  C   UNL     1       1.744   2.913  -0.864  1.00  0.00    +0.000 C 
ATOM      8  C   UNL     1       2.942   2.369  -0.065  1.00  0.00    +0.000 C 
ATOM      9  C   UNL     1       4.103   1.849  -0.866  1.00  0.00    +0.000 C 
ATOM     10  C   UNL     1       4.178   0.643  -1.464  1.00  0.00    +0.000 C 
ATOM     11  C   UNL     1       5.455   0.182  -2.117  1.00  0.00    +0.000 C 
ATOM     12  C   UNL     1       3.006  -0.303  -1.603  1.00  0.00    +0.000 C 
ATOM     13  C   UNL     1       2.737  -1.243  -0.415  1.00  0.00    +0.000 C 
ATOM     14  C   UNL     1       1.261  -1.345  -0.123  1.00  0.00    +0.000 C 
ATOM     15  O   UNL     1       0.699  -2.664  -0.083  1.00  0.00    +0.000 OA
ATOM     16  C   UNL     1       0.249  -1.833  -1.165  1.00  0.00    +0.000 C 
ATOM     17  C   UNL     1       0.730  -2.342  -2.506  1.00  0.00    +0.000 C 
ATOM     18  C   UNL     1      -1.218  -1.394  -1.130  1.00  0.00    +0.000 C 
ENDROOT
BRANCH   2  19
ATOM     19  C   UNL     1      -2.617  -0.109   2.447  1.00  0.00    +0.000 C 
ATOM     20  C   UNL     1      -3.835   0.819   2.517  1.00  0.00    +0.000 C 
ATOM     21  C   UNL     1      -1.731   0.057   3.690  1.00  0.00    +0.000 C 
ENDBRANCH   2  19
BRANCH  18  22
ATOM     22  O   UNL     1      -1.947  -2.375  -1.907  1.00  0.00    +0.000 OA
ATOM     23  H   UNL     1      -1.933  -3.200  -1.378  1.00  0.00    +0.000 HD
ENDBRANCH  18  22
BRANCH   1  24
ATOM     24  O   UNL     1      -3.359  -1.345   0.042  1.00  0.00    +0.000 OA
BRANCH  24  26
ATOM     25  C   UNL     1      -5.368  -2.537  -0.131  1.00  0.00    +0.000 C 
ATOM     26  C   UNL     1      -3.886  -2.596   0.072  1.00  0.00    +0.000 C 
ATOM     27  O   UNL     1      -3.246  -3.628   0.226  1.00  0.00    +0.000 OA
ENDBRANCH  24  26
ENDBRANCH   1  24
TORSDOF 4
