REMARK  Name = SANC00293.pdb
AUTHORGENERATED BY OPEN BABEL 2.3.0
REMARK  16 active torsions:
REMARK  status: ('A' for Active; 'I' for Inactive)
REMARK    1  A    between atoms: C_7  and  C_22
REMARK    2  A    between atoms: C_8  and  O_32
REMARK    3  A    between atoms: C_9  and  C_41
REMARK    4  A    between atoms: C_10  and  C_42
REMARK    5  A    between atoms: C_11  and  C_43
REMARK    6  A    between atoms: O_14  and  C_44
REMARK    7  A    between atoms: O_15  and  C_46
REMARK    8  A    between atoms: O_16  and  C_47
REMARK    9  A    between atoms: O_17  and  C_56
REMARK   10  A    between atoms: C_22  and  C_23
REMARK   11  A    between atoms: C_23  and  C_39
REMARK   12  A    between atoms: O_32  and  C_49
REMARK   13  A    between atoms: O_33  and  C_39
REMARK   14  A    between atoms: O_33  and  C_48
REMARK   15  A    between atoms: O_36  and  C_45
REMARK   16  A    between atoms: O_36  and  C_55
REMARK                            x       y       z     vdW  Elec       q    Type
REMARK                         _______ _______ _______ _____ _____    ______ ____
ROOT
ATOM      1  C   UNL     1       0.788  -4.491   2.586  1.00  0.00    +0.000 C 
ATOM      2  C   UNL     1      -8.448  -4.037  -0.243  1.00  0.00    +0.000 C 
ATOM      3  O   UNL     1      -1.283   2.435   2.676  1.00  0.00    +0.000 OA
ATOM      4  C   UNL     1      -3.398  -3.608   1.569  1.00  0.00    +0.000 C 
ATOM      5  C   UNL     1      -1.998  -3.805   1.859  1.00  0.00    +0.000 C 
ATOM      6  C   UNL     1      -3.986  -3.904   0.399  1.00  0.00    +0.000 C 
ATOM      7  C   UNL     1      -0.978  -3.388   1.089  1.00  0.00    +0.000 C 
ATOM      8  C   UNL     1      -5.452  -3.761   0.055  1.00  0.00    +0.000 C 
ATOM      9  C   UNL     1       1.246  -2.250   1.548  1.00  0.00    +0.000 C 
ATOM     10  C   UNL     1      -7.793  -1.611   0.147  1.00  0.00    +0.000 C 
ATOM     11  C   UNL     1      -4.986   0.794   1.468  1.00  0.00    +0.000 C 
ATOM     12  C   UNL     1       2.954  -0.932   0.261  1.00  0.00    +0.000 C 
ATOM     13  C   UNL     1       2.153   0.891  -1.214  1.00  0.00    +0.000 C 
ATOM     14  C   UNL     1      -0.345   1.250  -1.455  1.00  0.00    +0.000 C 
ATOM     15  C   UNL     1      -3.296   1.926  -0.185  1.00  0.00    +0.000 C 
ATOM     16  O   UNL     1      -3.473   2.582   2.040  1.00  0.00    +0.000 OA
ATOM     17  O   UNL     1       0.569  -0.488   0.010  1.00  0.00    +0.000 OA
ATOM     18  O   UNL     1      -5.963  -1.958   1.622  1.00  0.00    +0.000 OA
ATOM     19  C   UNL     1      -2.162   2.230   1.852  1.00  0.00    +0.000 C 
ATOM     20  C   UNL     1       0.496  -3.592   1.374  1.00  0.00    +0.000 C 
ATOM     21  C   UNL     1      -7.855  -3.017   0.713  1.00  0.00    +0.000 C 
ATOM     22  C   UNL     1      -5.966   0.179   0.459  1.00  0.00    +0.000 C 
ATOM     23  C   UNL     1       3.256  -0.141  -1.008  1.00  0.00    +0.000 C 
ATOM     24  C   UNL     1      -0.715   2.091  -0.213  1.00  0.00    +0.000 C 
ATOM     25  C   UNL     1      -4.276   2.059   0.967  1.00  0.00    +0.000 C 
ATOM     26  C   UNL     1       1.542  -1.528   0.217  1.00  0.00    +0.000 C 
ATOM     27  C   UNL     1       0.779   0.222  -1.221  1.00  0.00    +0.000 C 
ATOM     28  C   UNL     1      -6.408  -3.249   1.156  1.00  0.00    +0.000 C 
ATOM     29  C   UNL     1      -6.824  -0.926   1.103  1.00  0.00    +0.000 C 
ATOM     30  C   UNL     1      -1.987   1.550   0.498  1.00  0.00    +0.000 C 
ENDROOT
BRANCH  22  31
ATOM     31  O   UNL     1      -5.228  -0.381  -0.629  1.00  0.00    +0.000 OA
ATOM     32  H   UNL     1      -4.622  -1.038  -0.227  1.00  0.00    +0.000 HD
ENDBRANCH  22  31
BRANCH  30  33
ATOM     33  O   UNL     1      -1.958   0.132   0.655  1.00  0.00    +0.000 OA
ATOM     34  H   UNL     1      -1.040  -0.130   0.885  1.00  0.00    +0.000 HD
ENDBRANCH  30  33
BRANCH  24  35
ATOM     35  O   UNL     1      -0.972   3.462  -0.619  1.00  0.00    +0.000 OA
BRANCH  35  37
ATOM     36  O   UNL     1       1.271   3.923  -0.746  1.00  0.00    +0.000 OA
ATOM     37  C   UNL     1       0.104   4.274  -0.815  1.00  0.00    +0.000 C 
BRANCH  37  38
ATOM     38  C   UNL     1      -0.378   5.666  -1.149  1.00  0.00    +0.000 C 
BRANCH  38  40
ATOM     39  C   UNL     1       0.288   8.035  -1.686  1.00  0.00    +0.000 C 
ATOM     40  C   UNL     1       0.783   6.636  -1.355  1.00  0.00    +0.000 C 
ENDBRANCH  38  40
ENDBRANCH  37  38
ENDBRANCH  35  37
ENDBRANCH  24  35
BRANCH  23  41
ATOM     41  O   UNL     1       4.491   0.577  -0.934  1.00  0.00    +0.000 OA
BRANCH  41  48
ATOM     42  C   UNL     1       6.525  -0.723   2.527  1.00  0.00    +0.000 C 
ATOM     43  O   UNL     1       5.983  -0.852   0.213  1.00  0.00    +0.000 OA
ATOM     44  C   UNL     1       6.282   0.085   1.257  1.00  0.00    +0.000 C 
ATOM     45  C   UNL     1       7.478   0.980   0.898  1.00  0.00    +0.000 C 
ATOM     46  C   UNL     1       7.255   1.643  -0.469  1.00  0.00    +0.000 C 
ATOM     47  C   UNL     1       6.827   0.643  -1.558  1.00  0.00    +0.000 C 
ATOM     48  C   UNL     1       5.666  -0.234  -1.032  1.00  0.00    +0.000 C 
BRANCH  47  50
ATOM     49  C   UNL     1       7.822  -0.927  -3.079  1.00  0.00    +0.000 C 
ATOM     50  O   UNL     1       8.013  -0.081  -1.956  1.00  0.00    +0.000 OA
ENDBRANCH  47  50
BRANCH  45  51
ATOM     51  O   UNL     1       8.700   0.229   0.897  1.00  0.00    +0.000 OA
ATOM     52  H   UNL     1       9.372   0.828   0.523  1.00  0.00    +0.000 HD
ENDBRANCH  45  51
BRANCH  46  53
ATOM     53  O   UNL     1       8.471   2.305  -0.872  1.00  0.00    +0.000 OA
ATOM     54  H   UNL     1       8.929   1.651  -1.442  1.00  0.00    +0.000 HD
ENDBRANCH  46  53
ENDBRANCH  41  48
ENDBRANCH  23  41
TORSDOF 11
