REMARK  Name = SANCDB_01115_minRM1.pdb
AUTHORGENERATED BY OPEN BABEL 2.3.2
REMARK  11 active torsions:
REMARK  status: ('A' for Active; 'I' for Inactive)
REMARK    1  A    between atoms: C_1  and  C_2
REMARK    2  A    between atoms: C_2  and  C_4
REMARK    3  A    between atoms: C_7  and  C_34
REMARK    4  A    between atoms: C_13  and  C_33
REMARK    5  A    between atoms: C_16  and  O_29
REMARK    6  A    between atoms: C_17  and  C_27
REMARK    7  A    between atoms: C_17  and  C_28
REMARK    8  A    between atoms: C_21  and  C_26
REMARK    9  A    between atoms: C_22  and  C_25
REMARK   10  A    between atoms: O_29  and  C_30
REMARK   11  A    between atoms: C_30  and  C_32
REMARK                            x       y       z     vdW  Elec       q    Type
REMARK                         _______ _______ _______ _____ _____    ______ ____
ROOT
ATOM      1  C   UNL     1      -4.951   0.353   0.961  1.00  0.00    +0.000 C 
ATOM      2  C   UNL     1      -6.293   0.124   0.209  1.00  0.00    +0.000 C 
ATOM      3  C   UNL     1      -5.934  -0.278  -1.232  1.00  0.00    +0.000 C 
ATOM      4  C   UNL     1      -4.497   0.223  -1.419  1.00  0.00    +0.000 C 
ATOM      5  C   UNL     1      -3.890  -0.158  -0.044  1.00  0.00    +0.000 C 
ATOM      6  C   UNL     1      -2.425   0.325   0.059  1.00  0.00    +0.000 C 
ATOM      7  C   UNL     1      -1.800   0.135   1.445  1.00  0.00    +0.000 C 
ATOM      8  C   UNL     1      -0.371   0.678   1.530  1.00  0.00    +0.000 C 
ATOM      9  C   UNL     1       0.562   0.120   0.431  1.00  0.00    +0.000 C 
ATOM     10  C   UNL     1       2.105   0.481   0.620  1.00  0.00    +0.000 C 
ATOM     11  C   UNL     1       2.588  -0.078   1.996  1.00  0.00    +0.000 C 
ATOM     12  C   UNL     1       4.104  -0.081   2.181  1.00  0.00    +0.000 C 
ATOM     13  C   UNL     1       4.828  -0.825   1.060  1.00  0.00    +0.000 C 
ATOM     14  C   UNL     1       4.468  -0.291  -0.362  1.00  0.00    +0.000 C 
ATOM     15  C   UNL     1       2.901  -0.280  -0.507  1.00  0.00    +0.000 C 
ATOM     16  C   UNL     1       2.383   0.099  -1.909  1.00  0.00    +0.000 C 
ATOM     17  C   UNL     1       0.905  -0.273  -2.071  1.00  0.00    +0.000 C 
ATOM     18  C   UNL     1      -0.046   0.354  -1.014  1.00  0.00    +0.000 C 
ATOM     19  C   UNL     1      -1.528  -0.322  -1.076  1.00  0.00    +0.000 C 
ATOM     20  C   UNL     1      -2.213  -0.133  -2.478  1.00  0.00    +0.000 C 
ATOM     21  C   UNL     1      -3.712  -0.496  -2.523  1.00  0.00    +0.000 C 
ATOM     22  C   UNL     1      -1.443  -1.875  -0.872  1.00  0.00    +0.000 C 
ATOM     23  C   UNL     1      -0.142   1.873  -1.347  1.00  0.00    +0.000 C 
ATOM     24  C   UNL     1       5.086  -1.284  -1.387  1.00  0.00    +0.000 C 
ATOM     25  C   UNL     1       5.132   1.073  -0.642  1.00  0.00    +0.000 C 
ATOM     26  C   UNL     1       2.348   2.009   0.632  1.00  0.00    +0.000 C 
ATOM     27  C   UNL     1      -4.548   1.742  -1.726  1.00  0.00    +0.000 C 
ENDROOT
BRANCH   1  29
ATOM     28  C   UNL     1      -5.681   0.638   3.389  1.00  0.00    +0.000 C 
ATOM     29  C   UNL     1      -5.024  -0.244   2.358  1.00  0.00    +0.000 C 
ATOM     30  C   UNL     1      -4.571  -1.462   2.701  1.00  0.00    +0.000 C 
ENDBRANCH   1  29
BRANCH  13  31
ATOM     31  O   UNL     1       6.252  -0.708   1.271  1.00  0.00    +0.000 OA
BRANCH  31  32
ATOM     32  C   UNL     1       6.820  -1.613   2.113  1.00  0.00    +0.000 C 
ATOM     33  O   UNL     1       6.232  -2.507   2.705  1.00  0.00    +0.000 OA
ATOM     34  C   UNL     1       8.292  -1.356   2.216  1.00  0.00    +0.000 C 
ENDBRANCH  31  32
ENDBRANCH  13  31
TORSDOF 3
