REMARK  Name = /srv/my_project/app/compsite/backup/Dave/CORINA_stuff/newPDBs/SANC00522.pdb
AUTHORGENERATED BY OPEN BABEL 2.3.2
REMARK  5 active torsions:
REMARK  status: ('A' for Active; 'I' for Inactive)
REMARK    1  A    between atoms: C_2  and  C_3
REMARK    2  A    between atoms: C_2  and  C_11
REMARK    3  A    between atoms: C_4  and  C_5
REMARK    4  A    between atoms: C_14  and  O_15
REMARK    5  A    between atoms: C_17  and  O_18
REMARK                            x       y       z     vdW  Elec       q    Type
REMARK                         _______ _______ _______ _____ _____    ______ ____
ROOT
ATOM      1  O   UNL     1       1.277   0.353  -3.217  1.00  0.00    +0.000 OA
ATOM      2  C   UNL     1       0.986   0.294  -2.024  1.00  0.00    +0.000 C 
ENDROOT
BRANCH   2   3
ATOM      3  C   UNL     1       2.061   0.123  -1.023  1.00  0.00    +0.000 A 
ATOM      4  C   UNL     1       3.009  -0.882  -1.261  1.00  0.00    +0.000 A 
ATOM      5  C   UNL     1       4.058  -1.086  -0.363  1.00  0.00    +0.000 A 
ATOM      6  C   UNL     1       4.159  -0.272   0.761  1.00  0.00    +0.000 A 
ATOM      7  C   UNL     1       3.239   0.746   0.998  1.00  0.00    +0.000 A 
ATOM      8  C   UNL     1       2.193   0.950   0.098  1.00  0.00    +0.000 A 
BRANCH   6   9
ATOM      9  O   UNL     1       5.166  -0.434   1.665  1.00  0.00    +0.000 OA
ATOM     10  H   UNL     1       5.746  -1.154   1.364  1.00  0.00    +0.000 HD
ENDBRANCH   6   9
BRANCH   8  11
ATOM     11  O   UNL     1       1.315   1.976   0.308  1.00  0.00    +0.000 OA
ATOM     12  H   UNL     1       1.616   2.507   1.065  1.00  0.00    +0.000 HD
ENDBRANCH   8  11
ENDBRANCH   2   3
BRANCH   2  13
ATOM     13  C   UNL     1      -0.443   0.335  -1.618  1.00  0.00    +0.000 C 
ATOM     14  C   UNL     1      -0.927  -0.160  -0.468  1.00  0.00    +0.000 C 
BRANCH  14  15
ATOM     15  C   UNL     1      -2.351  -0.129  -0.105  1.00  0.00    +0.000 A 
ATOM     16  C   UNL     1      -2.701   0.093   1.233  1.00  0.00    +0.000 A 
ATOM     17  C   UNL     1      -4.042   0.103   1.625  1.00  0.00    +0.000 A 
ATOM     18  C   UNL     1      -5.046  -0.121   0.685  1.00  0.00    +0.000 A 
ATOM     19  C   UNL     1      -4.709  -0.359  -0.646  1.00  0.00    +0.000 A 
ATOM     20  C   UNL     1      -3.368  -0.367  -1.039  1.00  0.00    +0.000 A 
ENDBRANCH  14  15
ENDBRANCH   2  13
TORSDOF 5
