REMARK  Name = SANCDB_00852_minRM1.pdb
AUTHORGENERATED BY OPEN BABEL 2.3.2
REMARK  6 active torsions:
REMARK  status: ('A' for Active; 'I' for Inactive)
REMARK    1  A    between atoms: C_1  and  O_2
REMARK    2  A    between atoms: O_2  and  C_3
REMARK    3  A    between atoms: C_3  and  C_5
REMARK    4  A    between atoms: C_6  and  C_7
REMARK    5  A    between atoms: C_9  and  O_14
REMARK    6  A    between atoms: C_10  and  O_13
REMARK                            x       y       z     vdW  Elec       q    Type
REMARK                         _______ _______ _______ _____ _____    ______ ____
ROOT
ATOM      1  C   UNL     1      -0.893   0.010   0.005  1.00  0.00    +0.000 A 
ATOM      2  C   UNL     1      -1.920   0.945   0.196  1.00  0.00    +0.000 A 
ATOM      3  C   UNL     1      -3.219   0.655  -0.226  1.00  0.00    +0.000 A 
ATOM      4  C   UNL     1      -3.507  -0.569  -0.827  1.00  0.00    +0.000 A 
ATOM      5  C   UNL     1      -2.500  -1.513  -1.008  1.00  0.00    +0.000 A 
ATOM      6  C   UNL     1      -1.197  -1.224  -0.587  1.00  0.00    +0.000 A 
ENDROOT
BRANCH   1   8
ATOM      7  C   UNL     1       1.584  -0.021  -0.149  1.00  0.00    +0.000 C 
ATOM      8  C   UNL     1       0.457   0.337   0.484  1.00  0.00    +0.000 C 
BRANCH   7   9
ATOM      9  C   UNL     1       2.896   0.372   0.405  1.00  0.00    +0.000 C 
ATOM     10  O   UNL     1       3.066   1.028   1.419  1.00  0.00    +0.000 OA
BRANCH   9  12
ATOM     11  C   UNL     1       5.187   0.185   0.016  1.00  0.00    +0.000 C 
ATOM     12  O   UNL     1       3.860  -0.126  -0.409  1.00  0.00    +0.000 OA
ENDBRANCH   9  12
ENDBRANCH   7   9
ENDBRANCH   1   8
BRANCH   4  13
ATOM     13  O   UNL     1      -4.784  -0.834  -1.232  1.00  0.00    +0.000 OA
ATOM     14  H   UNL     1      -4.817  -1.721  -1.621  1.00  0.00    +0.000 HD
ENDBRANCH   4  13
BRANCH   3  15
ATOM     15  O   UNL     1      -4.222   1.567  -0.051  1.00  0.00    +0.000 OA
ATOM     16  H   UNL     1      -3.863   2.358   0.380  1.00  0.00    +0.000 HD
ENDBRANCH   3  15
TORSDOF 5
