REMARK  Name = /srv/my_project/app/compsite/backup/Dave/CORINA_stuff/newPDBs/SANC00260.pdb
AUTHORGENERATED BY OPEN BABEL 2.3.2
REMARK  7 active torsions:
REMARK  status: ('A' for Active; 'I' for Inactive)
REMARK    1  A    between atoms: C_1  and  O_2
REMARK    2  A    between atoms: O_2  and  C_3
REMARK    3  A    between atoms: C_4  and  O_5
REMARK    4  A    between atoms: C_7  and  O_8
REMARK    5  A    between atoms: C_12  and  C_14
REMARK    6  A    between atoms: C_14  and  C_15
REMARK    7  A    between atoms: C_18  and  O_19
REMARK                            x       y       z     vdW  Elec       q    Type
REMARK                         _______ _______ _______ _____ _____    ______ ____
ROOT
ATOM      1  C   UNL     1       3.333  -0.841  -0.487  1.00  0.00    +0.000 A 
ATOM      2  C   UNL     1       4.497  -0.073  -0.355  1.00  0.00    +0.000 A 
ATOM      3  C   UNL     1       4.420   1.268   0.012  1.00  0.00    +0.000 A 
ATOM      4  C   UNL     1       3.171   1.848   0.222  1.00  0.00    +0.000 A 
ATOM      5  C   UNL     1       2.000   1.093   0.072  1.00  0.00    +0.000 A 
ATOM      6  C   UNL     1       0.666   1.706   0.231  1.00  0.00    +0.000 C 
ATOM      7  O   UNL     1       0.586   2.887   0.566  1.00  0.00    +0.000 OA
ATOM      8  C   UNL     1      -0.532   0.841  -0.097  1.00  0.00    +0.000 C 
ATOM      9  C   UNL     1      -0.171  -0.584   0.301  1.00  0.00    +0.000 C 
ATOM     10  O   UNL     1       0.969  -1.051  -0.427  1.00  0.00    +0.000 OA
ATOM     11  C   UNL     1       2.078  -0.259  -0.270  1.00  0.00    +0.000 A 
ENDROOT
BRANCH   1  13
ATOM     12  C   UNL     1       3.713  -2.998   0.205  1.00  0.00    +0.000 C 
ATOM     13  O   UNL     1       3.401  -2.149  -0.897  1.00  0.00    +0.000 OA
ENDBRANCH   1  13
BRANCH   2  14
ATOM     14  O   UNL     1       5.715  -0.650  -0.591  1.00  0.00    +0.000 OA
ATOM     15  H   UNL     1       6.402   0.036  -0.568  1.00  0.00    +0.000 HD
ENDBRANCH   2  14
BRANCH   4  16
ATOM     16  O   UNL     1       3.166   3.174   0.564  1.00  0.00    +0.000 OA
ATOM     17  H   UNL     1       2.230   3.461   0.666  1.00  0.00    +0.000 HD
ENDBRANCH   4  16
BRANCH   8  18
ATOM     18  C   UNL     1      -1.776   1.361   0.638  1.00  0.00    +0.000 C 
BRANCH  18  19
ATOM     19  C   UNL     1      -3.038   0.604   0.298  1.00  0.00    +0.000 A 
ATOM     20  C   UNL     1      -3.649  -0.223   1.250  1.00  0.00    +0.000 A 
ATOM     21  C   UNL     1      -4.808  -0.931   0.929  1.00  0.00    +0.000 A 
ATOM     22  C   UNL     1      -5.360  -0.812  -0.340  1.00  0.00    +0.000 A 
ATOM     23  C   UNL     1      -4.773   0.008  -1.297  1.00  0.00    +0.000 A 
ATOM     24  C   UNL     1      -3.613   0.716  -0.977  1.00  0.00    +0.000 A 
BRANCH  22  25
ATOM     25  O   UNL     1      -6.492  -1.522  -0.609  1.00  0.00    +0.000 OA
ATOM     26  H   UNL     1      -6.764  -1.336  -1.523  1.00  0.00    +0.000 HD
ENDBRANCH  22  25
ENDBRANCH  18  19
ENDBRANCH   8  18
TORSDOF 6
