REMARK  Name = /srv/my_project/app/compsite/backup/Dave/CORINA_stuff/newPDBs/SANC00568.pdb
AUTHORGENERATED BY OPEN BABEL 2.3.2
REMARK  11 active torsions:
REMARK  status: ('A' for Active; 'I' for Inactive)
REMARK    1  A    between atoms: C_1  and  O_2
REMARK    2  A    between atoms: O_2  and  C_3
REMARK    3  A    between atoms: C_6  and  C_7
REMARK    4  A    between atoms: C_7  and  C_8
REMARK    5  A    between atoms: C_8  and  O_9
REMARK    6  A    between atoms: C_13  and  O_14
REMARK    7  A    between atoms: O_14  and  C_15
REMARK    8  A    between atoms: C_16  and  O_17
REMARK    9  A    between atoms: O_17  and  C_18
REMARK   10  A    between atoms: C_20  and  O_21
REMARK   11  A    between atoms: C_26  and  O_27
REMARK                            x       y       z     vdW  Elec       q    Type
REMARK                         _______ _______ _______ _____ _____    ______ ____
ROOT
ATOM      1  C   UNL     1       0.498   1.003   1.642  1.00  0.00    +0.000 C 
ATOM      2  C   UNL     1       0.223   1.657   0.289  1.00  0.00    +0.000 C 
ATOM      3  O   UNL     1      -0.606   0.839  -0.542  1.00  0.00    +0.000 OA
ATOM      4  C   UNL     1      -1.810   0.524   0.041  1.00  0.00    +0.000 A 
ATOM      5  C   UNL     1      -2.870   0.165  -0.804  1.00  0.00    +0.000 A 
ATOM      6  C   UNL     1      -4.126  -0.193  -0.281  1.00  0.00    +0.000 A 
ATOM      7  C   UNL     1      -4.316  -0.159   1.103  1.00  0.00    +0.000 A 
ATOM      8  C   UNL     1      -3.261   0.191   1.947  1.00  0.00    +0.000 A 
ATOM      9  C   UNL     1      -2.007   0.517   1.422  1.00  0.00    +0.000 A 
ATOM     10  C   UNL     1      -0.862   0.819   2.303  1.00  0.00    +0.000 C 
ATOM     11  O   UNL     1      -1.019   0.884   3.524  1.00  0.00    +0.000 OA
ENDROOT
BRANCH   1  12
ATOM     12  O   UNL     1       1.265   1.893   2.465  1.00  0.00    +0.000 OA
ATOM     13  H   UNL     1       1.065   1.654   3.393  1.00  0.00    +0.000 HD
ENDBRANCH   1  12
BRANCH   5  14
ATOM     14  O   UNL     1      -2.643   0.095  -2.159  1.00  0.00    +0.000 OA
ATOM     15  C   UNL     1      -3.016   1.323  -2.783  1.00  0.00    +0.000 C 
ENDBRANCH   5  14
BRANCH   6  16
ATOM     16  O   UNL     1      -5.085  -0.543  -1.195  1.00  0.00    +0.000 OA
ATOM     17  C   UNL     1      -6.325  -1.023  -0.690  1.00  0.00    +0.000 C 
ENDBRANCH   6  16
BRANCH   8  18
ATOM     18  O   UNL     1      -3.528   0.179   3.290  1.00  0.00    +0.000 OA
ATOM     19  H   UNL     1      -2.716   0.451   3.775  1.00  0.00    +0.000 HD
ENDBRANCH   8  18
BRANCH   1  20
ATOM     20  C   UNL     1       1.182  -0.379   1.570  1.00  0.00    +0.000 C 
BRANCH  20  24
ATOM     21  C   UNL     1       4.754  -0.502  -0.888  1.00  0.00    +0.000 A 
ATOM     22  C   UNL     1       3.561  -1.074  -1.336  1.00  0.00    +0.000 A 
ATOM     23  C   UNL     1       2.411  -1.035  -0.539  1.00  0.00    +0.000 A 
ATOM     24  C   UNL     1       2.433  -0.425   0.722  1.00  0.00    +0.000 A 
ATOM     25  C   UNL     1       3.627   0.150   1.173  1.00  0.00    +0.000 A 
ATOM     26  C   UNL     1       4.771   0.111   0.372  1.00  0.00    +0.000 A 
BRANCH  21  28
ATOM     27  C   UNL     1       5.941  -1.106  -2.865  1.00  0.00    +0.000 C 
ATOM     28  O   UNL     1       5.931  -0.484  -1.589  1.00  0.00    +0.000 OA
ENDBRANCH  21  28
BRANCH  26  29
ATOM     29  O   UNL     1       5.932   0.683   0.822  1.00  0.00    +0.000 OA
ATOM     30  H   UNL     1       5.762   1.109   1.676  1.00  0.00    +0.000 HD
ENDBRANCH  26  29
ENDBRANCH  20  24
ENDBRANCH   1  20
TORSDOF 8
