REMARK  Name = /srv/my_project/app/compsite/backup/Dave/CORINA_stuff/newPDBs/SANC00296.pdb
AUTHORGENERATED BY OPEN BABEL 2.3.2
REMARK  23 active torsions:
REMARK  status: ('A' for Active; 'I' for Inactive)
REMARK    1  A    between atoms: C_4  and  O_6
REMARK    2  A    between atoms: C_7  and  C_8
REMARK    3  A    between atoms: C_11  and  O_13
REMARK    4  A    between atoms: O_13  and  C_14
REMARK    5  A    between atoms: C_14  and  C_15
REMARK    6  A    between atoms: C_18  and  C_19
REMARK    7  A    between atoms: C_20  and  O_22
REMARK    8  A    between atoms: O_22  and  C_23
REMARK    9  A    between atoms: C_23  and  C_25
REMARK   10  A    between atoms: C_25  and  O_27
REMARK   11  A    between atoms: C_25  and  C_28
REMARK   12  A    between atoms: C_28  and  N_30
REMARK   13  A    between atoms: C_28  and  C_39
REMARK   14  A    between atoms: C_31  and  C_33
REMARK   15  A    between atoms: C_46  and  O_47
REMARK   16  A    between atoms: C_48  and  O_50
REMARK   17  A    between atoms: O_50  and  C_51
REMARK   18  A    between atoms: C_51  and  C_53
REMARK   19  A    between atoms: C_61  and  O_62
REMARK   20  A    between atoms: O_62  and  C_63
REMARK   21  A    between atoms: C_63  and  C_64
REMARK   22  A    between atoms: C_68  and  C_69
REMARK   23  A    between atoms: C_68  and  C_70
REMARK                            x       y       z     vdW  Elec       q    Type
REMARK                         _______ _______ _______ _____ _____    ______ ____
ROOT
ATOM      1  C   UNL     1      -5.350  -1.341   2.544  1.00  0.00    +0.000 C 
ATOM      2  C   UNL     1      -6.086  -1.964   1.378  1.00  0.00    +0.000 C 
ATOM      3  C   UNL     1      -5.490  -1.573   0.029  1.00  0.00    +0.000 C 
ATOM      4  C   UNL     1      -3.910  -1.799  -0.084  1.00  0.00    +0.000 C 
ATOM      5  C   UNL     1      -3.696  -3.297   0.252  1.00  0.00    +0.000 C 
ATOM      6  C   UNL     1      -3.624  -1.548  -1.637  1.00  0.00    +0.000 C 
ATOM      7  O   UNL     1      -4.413  -0.813  -2.264  1.00  0.00    +0.000 OA
ATOM      8  C   UNL     1      -2.399  -2.149  -2.464  1.00  0.00    +0.000 C 
ATOM      9  C   UNL     1      -0.981  -1.688  -2.062  1.00  0.00    +0.000 C 
ATOM     10  C   UNL     1       0.124  -2.493  -1.934  1.00  0.00    +0.000 C 
ATOM     11  C   UNL     1       0.331  -3.789  -2.666  1.00  0.00    +0.000 C 
ATOM     12  C   UNL     1       1.140  -2.269  -0.749  1.00  0.00    +0.000 C 
ATOM     13  C   UNL     1       0.708  -1.194   0.353  1.00  0.00    +0.000 C 
ATOM     14  C   UNL     1      -0.791  -0.920   0.154  1.00  0.00    +0.000 C 
ATOM     15  C   UNL     1      -1.728  -0.261   1.155  1.00  0.00    +0.000 C 
ATOM     16  C   UNL     1      -3.303  -0.625   0.922  1.00  0.00    +0.000 C 
ATOM     17  C   UNL     1      -3.960  -0.656   2.349  1.00  0.00    +0.000 C 
ATOM     18  C   UNL     1      -3.468  -1.773   3.307  1.00  0.00    +0.000 C 
ATOM     19  O   UNL     1      -4.768  -2.379   3.376  1.00  0.00    +0.000 OA
ATOM     20  C   UNL     1      -0.907  -0.354  -1.336  1.00  0.00    +0.000 C 
ATOM     21  C   UNL     1       0.348   0.461  -1.849  1.00  0.00    +0.000 C 
ATOM     22  C   UNL     1      -1.966   0.732  -1.683  1.00  0.00    +0.000 C 
ENDROOT
BRANCH  14  23
ATOM     23  O   UNL     1      -1.278  -2.283   0.354  1.00  0.00    +0.000 OA
ATOM     24  H   UNL     1      -0.927  -2.638   1.193  1.00  0.00    +0.000 HD
ENDBRANCH  14  23
BRANCH   3  25
ATOM     25  O   UNL     1      -6.199  -2.353  -0.945  1.00  0.00    +0.000 OA
ATOM     26  H   UNL     1      -6.077  -1.893  -1.803  1.00  0.00    +0.000 HD
ENDBRANCH   3  25
BRANCH  12  27
ATOM     27  O   UNL     1       2.441  -1.975  -1.277  1.00  0.00    +0.000 OA
BRANCH  27  28
ATOM     28  C   UNL     1       3.473  -2.164  -0.416  1.00  0.00    +0.000 C 
ATOM     29  O   UNL     1       3.391  -2.712   0.679  1.00  0.00    +0.000 OA
BRANCH  28  30
ATOM     30  C   UNL     1       4.797  -1.658  -0.985  1.00  0.00    +0.000 C 
BRANCH  30  31
ATOM     31  O   UNL     1       5.843  -1.889  -0.014  1.00  0.00    +0.000 OA
ATOM     32  H   UNL     1       5.518  -2.600   0.575  1.00  0.00    +0.000 HD
ENDBRANCH  30  31
BRANCH  30  33
ATOM     33  C   UNL     1       4.686  -0.150  -1.323  1.00  0.00    +0.000 C 
BRANCH  33  34
ATOM     34  C   UNL     1       5.754   0.358  -2.287  1.00  0.00    +0.000 A 
ATOM     35  C   UNL     1       7.101  -0.025  -2.200  1.00  0.00    +0.000 A 
ATOM     36  C   UNL     1       8.047   0.479  -3.095  1.00  0.00    +0.000 A 
ATOM     37  C   UNL     1       7.665   1.383  -4.083  1.00  0.00    +0.000 A 
ATOM     38  C   UNL     1       6.337   1.791  -4.172  1.00  0.00    +0.000 A 
ATOM     39  C   UNL     1       5.391   1.287  -3.278  1.00  0.00    +0.000 A 
ENDBRANCH  33  34
BRANCH  33  40
ATOM     40  N   UNL     1       4.712   0.657  -0.105  1.00  0.00    +0.000 N 
ATOM     41  C   UNL     1       3.933   1.781   0.044  1.00  0.00    +0.000 C 
ATOM     42  O   UNL     1       3.077   2.129  -0.762  1.00  0.00    +0.000 OA
ATOM     43  H   UNL     1       5.537   0.545   0.472  1.00  0.00    +0.000 HD
BRANCH  41  44
ATOM     44  C   UNL     1       4.195   2.599   1.255  1.00  0.00    +0.000 A 
ATOM     45  C   UNL     1       4.572   2.012   2.469  1.00  0.00    +0.000 A 
ATOM     46  C   UNL     1       4.810   2.817   3.585  1.00  0.00    +0.000 A 
ATOM     47  C   UNL     1       4.670   4.202   3.493  1.00  0.00    +0.000 A 
ATOM     48  C   UNL     1       4.282   4.787   2.288  1.00  0.00    +0.000 A 
ATOM     49  C   UNL     1       4.035   3.987   1.171  1.00  0.00    +0.000 A 
ENDBRANCH  41  44
ENDBRANCH  33  40
ENDBRANCH  30  33
ENDBRANCH  28  30
ENDBRANCH  27  28
ENDBRANCH  12  27
BRANCH  15  50
ATOM     50  O   UNL     1      -1.577   1.172   1.171  1.00  0.00    +0.000 OA
BRANCH  50  51
ATOM     51  C   UNL     1      -0.538   1.655   1.899  1.00  0.00    +0.000 C 
ATOM     52  O   UNL     1       0.256   0.975   2.530  1.00  0.00    +0.000 OA
BRANCH  51  53
ATOM     53  C   UNL     1      -0.508   3.140   1.851  1.00  0.00    +0.000 A 
ATOM     54  C   UNL     1       0.453   3.807   2.622  1.00  0.00    +0.000 A 
ATOM     55  C   UNL     1       0.508   5.202   2.624  1.00  0.00    +0.000 A 
ATOM     56  C   UNL     1      -0.391   5.937   1.854  1.00  0.00    +0.000 A 
ATOM     57  C   UNL     1      -1.347   5.281   1.079  1.00  0.00    +0.000 A 
ATOM     58  C   UNL     1      -1.408   3.886   1.076  1.00  0.00    +0.000 A 
ENDBRANCH  51  53
ENDBRANCH  50  51
ENDBRANCH  15  50
BRANCH   8  59
ATOM     59  O   UNL     1      -2.490  -3.579  -2.479  1.00  0.00    +0.000 OA
BRANCH  59  60
ATOM     60  C   UNL     1      -3.452  -4.102  -3.284  1.00  0.00    +0.000 C 
ATOM     61  C   UNL     1      -3.452  -5.595  -3.171  1.00  0.00    +0.000 C 
ATOM     62  O   UNL     1      -4.209  -3.464  -3.997  1.00  0.00    +0.000 OA
ENDBRANCH  59  60
ENDBRANCH   8  59
BRANCH  17  63
ATOM     63  O   UNL     1      -3.825   0.664   2.971  1.00  0.00    +0.000 OA
BRANCH  63  64
ATOM     64  C   UNL     1      -4.703   1.623   2.567  1.00  0.00    +0.000 C 
ATOM     65  C   UNL     1      -4.475   2.891   3.330  1.00  0.00    +0.000 C 
ATOM     66  O   UNL     1      -5.577   1.466   1.727  1.00  0.00    +0.000 OA
ENDBRANCH  63  64
ENDBRANCH  17  63
TORSDOF 17
