REMARK  Name = SANCDB_01039_minRM1.pdb
AUTHORGENERATED BY OPEN BABEL 2.3.2
REMARK  4 active torsions:
REMARK  status: ('A' for Active; 'I' for Inactive)
REMARK    1  A    between atoms: C_1  and  C_2
REMARK    2  A    between atoms: C_2  and  C_3
REMARK    3  A    between atoms: C_2  and  C_4
REMARK    4  A    between atoms: C_9  and  O_16
REMARK                            x       y       z     vdW  Elec       q    Type
REMARK                         _______ _______ _______ _____ _____    ______ ____
ROOT
ATOM      1  C   UNL     1      -1.135   0.257   0.232  1.00  0.00    +0.000 C 
ATOM      2  C   UNL     1      -0.899  -1.030   1.067  1.00  0.00    +0.000 C 
ATOM      3  C   UNL     1      -0.396  -2.236   0.248  1.00  0.00    +0.000 C 
ATOM      4  C   UNL     1       1.118  -2.364   0.129  1.00  0.00    +0.000 C 
ATOM      5  C   UNL     1       1.754  -3.368   0.762  1.00  0.00    +0.000 C 
ATOM      6  C   UNL     1       1.812  -1.361  -0.781  1.00  0.00    +0.000 C 
ATOM      7  C   UNL     1       2.221  -0.086  -0.027  1.00  0.00    +0.000 C 
ATOM      8  C   UNL     1       1.862   1.186  -0.812  1.00  0.00    +0.000 C 
ATOM      9  C   UNL     1       1.497   2.339   0.096  1.00  0.00    +0.000 C 
ATOM     10  C   UNL     1       2.291   3.425   0.127  1.00  0.00    +0.000 C 
ATOM     11  C   UNL     1       0.327   2.301   0.968  1.00  0.00    +0.000 C 
ATOM     12  C   UNL     1      -0.720   1.460   1.059  1.00  0.00    +0.000 C 
ENDROOT
BRANCH   1  14
ATOM     13  C   UNL     1      -2.815   1.688  -1.077  1.00  0.00    +0.000 C 
ATOM     14  C   UNL     1      -2.623   0.423  -0.224  1.00  0.00    +0.000 C 
ATOM     15  C   UNL     1      -3.144  -0.778  -1.023  1.00  0.00    +0.000 C 
ENDBRANCH   1  14
BRANCH   6  16
ATOM     16  O   UNL     1       2.968  -1.940  -1.386  1.00  0.00    +0.000 OA
ATOM     17  H   UNL     1       3.631  -2.062  -0.688  1.00  0.00    +0.000 HD
ENDBRANCH   6  16
TORSDOF 2
