REMARK  Name = SANCDB_00772_minRM1.pdb
AUTHORGENERATED BY OPEN BABEL 2.3.2
REMARK  3 active torsions:
REMARK  status: ('A' for Active; 'I' for Inactive)
REMARK    1  A    between atoms: O_1  and  C_2
REMARK    2  A    between atoms: C_20  and  O_21
REMARK    3  A    between atoms: C_22  and  O_23
REMARK                            x       y       z     vdW  Elec       q    Type
REMARK                         _______ _______ _______ _____ _____    ______ ____
ROOT
ATOM      1  C   UNL     1       4.784  -0.484   0.609  1.00  0.00    +0.000 A 
ATOM      2  C   UNL     1       5.140   0.717   1.211  1.00  0.00    +0.000 A 
ATOM      3  C   UNL     1       4.149   1.538   1.752  1.00  0.00    +0.000 A 
ATOM      4  C   UNL     1       2.802   1.151   1.705  1.00  0.00    +0.000 A 
ATOM      5  C   UNL     1       2.460  -0.067   1.100  1.00  0.00    +0.000 A 
ATOM      6  C   UNL     1       3.447  -0.879   0.533  1.00  0.00    +0.000 A 
ATOM      7  O   UNL     1       3.190  -2.091  -0.080  1.00  0.00    +0.000 OA
ATOM      8  C   UNL     1       1.956  -2.227  -0.671  1.00  0.00    +0.000 A 
ATOM      9  C   UNL     1       1.069  -3.159  -0.139  1.00  0.00    +0.000 A 
ATOM     10  C   UNL     1      -0.213  -3.271  -0.676  1.00  0.00    +0.000 A 
ATOM     11  C   UNL     1      -0.604  -2.466  -1.756  1.00  0.00    +0.000 A 
ATOM     12  C   UNL     1       0.322  -1.575  -2.316  1.00  0.00    +0.000 A 
ATOM     13  C   UNL     1       1.603  -1.456  -1.778  1.00  0.00    +0.000 A 
ATOM     14  C   UNL     1      -2.009  -2.545  -2.301  1.00  0.00    +0.000 C 
ATOM     15  C   UNL     1      -2.853  -1.285  -2.039  1.00  0.00    +0.000 C 
ATOM     16  C   UNL     1      -3.142  -0.937  -0.590  1.00  0.00    +0.000 A 
ATOM     17  C   UNL     1      -3.575  -1.944   0.298  1.00  0.00    +0.000 A 
ATOM     18  C   UNL     1      -3.973  -1.645   1.604  1.00  0.00    +0.000 A 
ATOM     19  C   UNL     1      -3.982  -0.323   2.021  1.00  0.00    +0.000 A 
ATOM     20  C   UNL     1      -3.578   0.695   1.159  1.00  0.00    +0.000 A 
ATOM     21  C   UNL     1      -3.114   0.397  -0.128  1.00  0.00    +0.000 A 
ATOM     22  O   UNL     1      -2.777   1.424  -0.984  1.00  0.00    +0.000 OA
ATOM     23  C   UNL     1      -1.457   1.831  -0.987  1.00  0.00    +0.000 A 
ATOM     24  C   UNL     1      -0.861   1.989  -2.240  1.00  0.00    +0.000 A 
ATOM     25  C   UNL     1       0.452   2.450  -2.341  1.00  0.00    +0.000 A 
ATOM     26  C   UNL     1       1.160   2.797  -1.191  1.00  0.00    +0.000 A 
ATOM     27  C   UNL     1       0.560   2.693   0.071  1.00  0.00    +0.000 A 
ATOM     28  C   UNL     1      -0.750   2.194   0.163  1.00  0.00    +0.000 A 
ATOM     29  C   UNL     1       1.296   3.160   1.307  1.00  0.00    +0.000 C 
ATOM     30  C   UNL     1       1.718   2.041   2.266  1.00  0.00    +0.000 C 
ENDROOT
BRANCH   1  31
ATOM     31  O   UNL     1       5.780  -1.260   0.084  1.00  0.00    +0.000 OA
ATOM     32  H   UNL     1       5.341  -2.049  -0.286  1.00  0.00    +0.000 HD
ENDBRANCH   1  31
BRANCH  19  33
ATOM     33  O   UNL     1      -4.406   0.035   3.272  1.00  0.00    +0.000 OA
ATOM     34  H   UNL     1      -4.650  -0.775   3.753  1.00  0.00    +0.000 HD
ENDBRANCH  19  33
BRANCH  20  35
ATOM     35  O   UNL     1      -3.673   1.990   1.597  1.00  0.00    +0.000 OA
ATOM     36  H   UNL     1      -4.055   1.921   2.494  1.00  0.00    +0.000 HD
ENDBRANCH  20  35
TORSDOF 3
