REMARK  Name = /srv/my_project/app/compsite/backup/Dave/CORINA_stuff/newPDBs/SANC00431.pdb
AUTHORGENERATED BY OPEN BABEL 2.3.2
REMARK  4 active torsions:
REMARK  status: ('A' for Active; 'I' for Inactive)
REMARK    1  A    between atoms: C_4  and  C_5
REMARK    2  A    between atoms: C_6  and  O_8
REMARK    3  A    between atoms: C_11  and  C_12
REMARK    4  A    between atoms: C_14  and  O_16
REMARK                            x       y       z     vdW  Elec       q    Type
REMARK                         _______ _______ _______ _____ _____    ______ ____
ROOT
ATOM      1  C   UNL     1       1.362   0.685   0.299  1.00  0.00    +0.000 C 
ATOM      2  C   UNL     1       0.599   1.766  -0.431  1.00  0.00    +0.000 C 
ATOM      3  C   UNL     1      -0.697   2.137  -0.326  1.00  0.00    +0.000 C 
ATOM      4  C   UNL     1      -1.207   3.276  -1.183  1.00  0.00    +0.000 C 
ATOM      5  C   UNL     1      -1.728   1.505   0.594  1.00  0.00    +0.000 C 
ATOM      6  C   UNL     1      -2.760   0.638  -0.164  1.00  0.00    +0.000 C 
ATOM      7  C   UNL     1      -2.758  -0.839   0.281  1.00  0.00    +0.000 C 
ATOM      8  C   UNL     1      -1.401  -1.520   0.286  1.00  0.00    +0.000 C 
ATOM      9  C   UNL     1      -1.136  -2.353   1.512  1.00  0.00    +0.000 C 
ATOM     10  C   UNL     1      -0.514  -1.302  -0.707  1.00  0.00    +0.000 C 
ATOM     11  C   UNL     1       0.939  -1.666  -0.745  1.00  0.00    +0.000 C 
ATOM     12  C   UNL     1       1.870  -0.434  -0.626  1.00  0.00    +0.000 C 
ATOM     13  C   UNL     1       3.202  -0.708   0.004  1.00  0.00    +0.000 C 
ATOM     14  C   UNL     1       3.986  -1.795  -0.029  1.00  0.00    +0.000 C 
ATOM     15  C   UNL     1       3.593   0.479   0.796  1.00  0.00    +0.000 C 
ATOM     16  O   UNL     1       4.676   0.673   1.315  1.00  0.00    +0.000 OA
ATOM     17  O   UNL     1       2.534   1.324   0.835  1.00  0.00    +0.000 OA
ENDROOT
BRANCH   5  18
ATOM     18  O   UNL     1      -2.415   2.565   1.263  1.00  0.00    +0.000 OA
ATOM     19  H   UNL     1      -2.970   2.160   1.949  1.00  0.00    +0.000 HD
ENDBRANCH   5  18
BRANCH  11  20
ATOM     20  O   UNL     1       1.138  -2.303  -2.009  1.00  0.00    +0.000 OA
ATOM     21  H   UNL     1       2.059  -2.609  -2.052  1.00  0.00    +0.000 HD
ENDBRANCH  11  20
TORSDOF 2
