REMARK  Name = /srv/my_project/app/compsite/backup/Dave/CORINA_stuff/newPDBs/SANC00166.pdb
AUTHORGENERATED BY OPEN BABEL 2.3.2
REMARK  14 active torsions:
REMARK  status: ('A' for Active; 'I' for Inactive)
REMARK    1  A    between atoms: C_1  and  C_2
REMARK    2  A    between atoms: C_2  and  C_3
REMARK    3  A    between atoms: C_3  and  C_4
REMARK    4  A    between atoms: C_4  and  C_6
REMARK    5  A    between atoms: C_4  and  C_7
REMARK    6  A    between atoms: C_7  and  C_8
REMARK    7  A    between atoms: C_8  and  C_10
REMARK    8  A    between atoms: C_8  and  C_11
REMARK    9  A    between atoms: C_11  and  C_12
REMARK   10  A    between atoms: C_12  and  C_14
REMARK   11  A    between atoms: C_12  and  C_15
REMARK   12  A    between atoms: C_16  and  C_17
REMARK   13  A    between atoms: C_16  and  C_18
REMARK   14  A    between atoms: C_18  and  O_20
REMARK                            x       y       z     vdW  Elec       q    Type
REMARK                         _______ _______ _______ _____ _____    ______ ____
ROOT
ATOM      1  C   UNL     1      -0.831   0.972  -0.311  1.00  0.00    +0.000 C 
ENDROOT
BRANCH   1   2
ATOM      2  C   UNL     1      -0.192  -0.315   0.262  1.00  0.00    +0.000 C 
ATOM      3  C   UNL     1       0.009  -1.399  -0.798  1.00  0.00    +0.000 C 
BRANCH   2   4
ATOM      4  C   UNL     1       1.101  -0.029   1.067  1.00  0.00    +0.000 C 
BRANCH   4   5
ATOM      5  C   UNL     1       2.453   0.082   0.318  1.00  0.00    +0.000 C 
ATOM      6  C   UNL     1       2.474   1.249  -0.671  1.00  0.00    +0.000 C 
BRANCH   5   7
ATOM      7  C   UNL     1       3.597   0.237   1.354  1.00  0.00    +0.000 C 
BRANCH   7   9
ATOM      8  C   UNL     1       5.577  -0.117  -0.249  1.00  0.00    +0.000 C 
ATOM      9  C   UNL     1       4.867  -0.555   1.020  1.00  0.00    +0.000 C 
ENDBRANCH   7   9
ENDBRANCH   5   7
ENDBRANCH   4   5
ENDBRANCH   2   4
ENDBRANCH   1   2
BRANCH   1  10
ATOM     10  C   UNL     1      -2.255   0.799  -0.889  1.00  0.00    +0.000 C 
ATOM     11  C   UNL     1      -2.739   2.126  -1.484  1.00  0.00    +0.000 C 
BRANCH  10  12
ATOM     12  C   UNL     1      -3.237   0.349   0.170  1.00  0.00    +0.000 C 
ATOM     13  C   UNL     1      -4.045  -0.731   0.146  1.00  0.00    +0.000 C 
ATOM     14  C   UNL     1      -4.161  -1.722  -0.976  1.00  0.00    +0.000 C 
BRANCH  13  15
ATOM     15  C   UNL     1      -4.939  -1.036   1.297  1.00  0.00    +0.000 C 
ATOM     16  O   UNL     1      -5.689  -1.994   1.370  1.00  0.00    +0.000 OA
BRANCH  15  17
ATOM     17  O   UNL     1      -4.866  -0.146   2.301  1.00  0.00    +0.000 OA
ATOM     18  H   UNL     1      -5.503  -0.492   2.958  1.00  0.00    +0.000 HD
ENDBRANCH  15  17
ENDBRANCH  13  15
ENDBRANCH  10  12
ENDBRANCH   1  10
TORSDOF 9
