REMARK  Name = SANCDB_01047_minRM1.pdb
AUTHORGENERATED BY OPEN BABEL 2.3.2
REMARK  20 active torsions:
REMARK  status: ('A' for Active; 'I' for Inactive)
REMARK    1  A    between atoms: C_1  and  C_2
REMARK    2  A    between atoms: C_3  and  O_33
REMARK    3  A    between atoms: C_4  and  C_16
REMARK    4  A    between atoms: C_5  and  O_15
REMARK    5  A    between atoms: C_6  and  C_10
REMARK    6  A    between atoms: C_7  and  O_8
REMARK    7  A    between atoms: O_8  and  C_9
REMARK    8  A    between atoms: C_10  and  C_12
REMARK    9  A    between atoms: C_12  and  C_13
REMARK   10  A    between atoms: C_12  and  C_14
REMARK   11  A    between atoms: C_16  and  C_17
REMARK   12  A    between atoms: C_18  and  O_32
REMARK   13  A    between atoms: C_19  and  C_27
REMARK   14  A    between atoms: C_20  and  O_25
REMARK   15  A    between atoms: C_21  and  C_24
REMARK   16  A    between atoms: C_22  and  O_23
REMARK   17  A    between atoms: O_25  and  C_26
REMARK   18  A    between atoms: C_27  and  C_29
REMARK   19  A    between atoms: C_29  and  C_30
REMARK   20  A    between atoms: C_29  and  C_31
REMARK                            x       y       z     vdW  Elec       q    Type
REMARK                         _______ _______ _______ _____ _____    ______ ____
ROOT
ATOM      1  C   UNL     1      -0.307   2.431   0.751  1.00  0.00    +0.000 C 
ENDROOT
BRANCH   1   5
ATOM      2  C   UNL     1      -3.291   1.104  -3.161  1.00  0.00    +0.000 C 
ATOM      3  C   UNL     1      -2.918   0.997  -1.705  1.00  0.00    +0.000 A 
ATOM      4  C   UNL     1      -1.865   1.758  -1.160  1.00  0.00    +0.000 A 
ATOM      5  C   UNL     1      -1.485   1.649   0.192  1.00  0.00    +0.000 A 
ATOM      6  C   UNL     1      -2.231   0.790   1.017  1.00  0.00    +0.000 A 
ATOM      7  C   UNL     1      -3.263  -0.007   0.496  1.00  0.00    +0.000 A 
ATOM      8  C   UNL     1      -3.635   0.141  -0.847  1.00  0.00    +0.000 A 
BRANCH   8   9
ATOM      9  O   UNL     1      -4.701  -0.557  -1.358  1.00  0.00    +0.000 OA
ATOM     10  C   UNL     1      -5.922   0.150  -1.115  1.00  0.00    +0.000 C 
ENDBRANCH   8   9
BRANCH   7  11
ATOM     11  C   UNL     1      -3.915  -0.991   1.401  1.00  0.00    +0.000 C 
ATOM     12  O   UNL     1      -4.179  -0.605   2.542  1.00  0.00    +0.000 OA
BRANCH  11  13
ATOM     13  C   UNL     1      -4.168  -2.425   0.928  1.00  0.00    +0.000 C 
ATOM     14  C   UNL     1      -2.887  -3.070   0.402  1.00  0.00    +0.000 C 
ATOM     15  C   UNL     1      -4.733  -3.269   2.075  1.00  0.00    +0.000 C 
ENDBRANCH  11  13
ENDBRANCH   7  11
BRANCH   6  16
ATOM     16  O   UNL     1      -1.938   0.772   2.359  1.00  0.00    +0.000 OA
ATOM     17  H   UNL     1      -2.668   0.324   2.839  1.00  0.00    +0.000 HD
ENDBRANCH   6  16
BRANCH   4  18
ATOM     18  O   UNL     1      -1.190   2.675  -1.928  1.00  0.00    +0.000 OA
ATOM     19  H   UNL     1      -1.583   2.711  -2.817  1.00  0.00    +0.000 HD
ENDBRANCH   4  18
ENDBRANCH   1   5
BRANCH   1  20
ATOM     20  C   UNL     1       1.064   1.942   0.305  1.00  0.00    +0.000 A 
ATOM     21  C   UNL     1       1.676   0.848   0.939  1.00  0.00    +0.000 A 
ATOM     22  C   UNL     1       2.957   0.406   0.563  1.00  0.00    +0.000 A 
ATOM     23  C   UNL     1       3.683   1.124  -0.394  1.00  0.00    +0.000 A 
ATOM     24  C   UNL     1       3.087   2.189  -1.086  1.00  0.00    +0.000 A 
ATOM     25  C   UNL     1       1.786   2.579  -0.722  1.00  0.00    +0.000 A 
ATOM     26  C   UNL     1       3.823   2.935  -2.166  1.00  0.00    +0.000 C 
BRANCH  25  27
ATOM     27  O   UNL     1       1.240   3.629  -1.414  1.00  0.00    +0.000 OA
ATOM     28  H   UNL     1       0.281   3.444  -1.493  1.00  0.00    +0.000 HD
ENDBRANCH  25  27
BRANCH  23  29
ATOM     29  O   UNL     1       4.980   0.778  -0.684  1.00  0.00    +0.000 OA
ATOM     30  C   UNL     1       5.880   1.501   0.163  1.00  0.00    +0.000 C 
ENDBRANCH  23  29
BRANCH  22  31
ATOM     31  C   UNL     1       3.501  -0.812   1.212  1.00  0.00    +0.000 C 
ATOM     32  O   UNL     1       3.328  -0.941   2.425  1.00  0.00    +0.000 OA
BRANCH  31  33
ATOM     33  C   UNL     1       4.122  -1.905   0.350  1.00  0.00    +0.000 C 
ATOM     34  C   UNL     1       5.498  -2.277   0.892  1.00  0.00    +0.000 C 
ATOM     35  C   UNL     1       3.192  -3.116   0.348  1.00  0.00    +0.000 C 
ENDBRANCH  31  33
ENDBRANCH  22  31
BRANCH  21  36
ATOM     36  O   UNL     1       0.991   0.225   1.952  1.00  0.00    +0.000 OA
ATOM     37  H   UNL     1       1.627  -0.292   2.492  1.00  0.00    +0.000 HD
ENDBRANCH  21  36
ENDBRANCH   1  20
TORSDOF 12
