REMARK  Name = SANCDB_01059_minRM1.pdb
AUTHORGENERATED BY OPEN BABEL 2.3.2
REMARK  16 active torsions:
REMARK  status: ('A' for Active; 'I' for Inactive)
REMARK    1  A    between atoms: C_1  and  C_2
REMARK    2  A    between atoms: C_2  and  C_3
REMARK    3  A    between atoms: C_3  and  C_4
REMARK    4  A    between atoms: C_4  and  C_5
REMARK    5  A    between atoms: C_5  and  C_6
REMARK    6  A    between atoms: C_6  and  C_7
REMARK    7  A    between atoms: C_7  and  C_8
REMARK    8  A    between atoms: C_8  and  C_9
REMARK    9  A    between atoms: C_10  and  C_11
REMARK   10  A    between atoms: C_11  and  C_12
REMARK   11  A    between atoms: C_12  and  C_13
REMARK   12  A    between atoms: C_13  and  C_14
REMARK   13  A    between atoms: C_14  and  C_15
REMARK   14  A    between atoms: C_15  and  C_16
REMARK   15  A    between atoms: C_16  and  C_17
REMARK   16  A    between atoms: C_17  and  C_18
REMARK                            x       y       z     vdW  Elec       q    Type
REMARK                         _______ _______ _______ _____ _____    ______ ____
ROOT
ATOM      1  C   UNL     1      -0.822  -0.250  -0.964  1.00  0.00    +0.000 C 
ENDROOT
BRANCH   1   3
ATOM      2  C   UNL     1       1.302  -1.654  -0.925  1.00  0.00    +0.000 C 
ATOM      3  C   UNL     1       0.334  -0.990  -1.577  1.00  0.00    +0.000 C 
BRANCH   2   4
ATOM      4  C   UNL     1       1.413  -1.860   0.557  1.00  0.00    +0.000 C 
BRANCH   4   5
ATOM      5  C   UNL     1       2.327  -0.860   1.274  1.00  0.00    +0.000 C 
BRANCH   5   6
ATOM      6  C   UNL     1       3.814  -0.968   0.911  1.00  0.00    +0.000 C 
BRANCH   6   7
ATOM      7  C   UNL     1       4.226  -0.045  -0.240  1.00  0.00    +0.000 C 
BRANCH   7   8
ATOM      8  C   UNL     1       5.693  -0.210  -0.653  1.00  0.00    +0.000 C 
BRANCH   8   9
ATOM      9  C   UNL     1       6.731   0.086   0.435  1.00  0.00    +0.000 C 
BRANCH   9  11
ATOM     10  C   UNL     1       6.840   2.609   0.067  1.00  0.00    +0.000 C 
ATOM     11  C   UNL     1       6.650   1.478   1.065  1.00  0.00    +0.000 C 
ENDBRANCH   9  11
ENDBRANCH   8   9
ENDBRANCH   7   8
ENDBRANCH   6   7
ENDBRANCH   5   6
ENDBRANCH   4   5
ENDBRANCH   2   4
ENDBRANCH   1   3
BRANCH   1  12
ATOM     12  C   UNL     1      -2.138  -0.995  -1.199  1.00  0.00    +0.000 C 
BRANCH  12  13
ATOM     13  C   UNL     1      -3.369  -0.228  -0.702  1.00  0.00    +0.000 C 
BRANCH  13  14
ATOM     14  C   UNL     1      -3.449  -0.133   0.822  1.00  0.00    +0.000 C 
BRANCH  14  15
ATOM     15  C   UNL     1      -4.634   0.693   1.338  1.00  0.00    +0.000 C 
BRANCH  15  16
ATOM     16  C   UNL     1      -6.013   0.116   1.002  1.00  0.00    +0.000 C 
BRANCH  16  17
ATOM     17  C   UNL     1      -6.657   0.783  -0.214  1.00  0.00    +0.000 C 
BRANCH  17  18
ATOM     18  C   UNL     1      -8.014   0.191  -0.535  1.00  0.00    +0.000 C 
ATOM     19  O   UNL     1      -8.553  -0.712   0.090  1.00  0.00    +0.000 OA
ATOM     20  N   UNL     1      -8.622   0.752  -1.621  1.00  0.00    +0.000 N 
ATOM     21  H   UNL     1      -8.279   1.591  -2.066  1.00  0.00    +0.000 HD
ATOM     22  H   UNL     1      -9.556   0.431  -1.844  1.00  0.00    +0.000 HD
ENDBRANCH  17  18
ENDBRANCH  16  17
ENDBRANCH  15  16
ENDBRANCH  14  15
ENDBRANCH  13  14
ENDBRANCH  12  13
ENDBRANCH   1  12
TORSDOF 15
