REMARK  Name = /srv/my_project/app/compsite/backup/Dave/CORINA_stuff/newPDBs/SANC00160.pdb
AUTHORGENERATED BY OPEN BABEL 2.3.2
REMARK  22 active torsions:
REMARK  status: ('A' for Active; 'I' for Inactive)
REMARK    1  A    between atoms: C_1  and  O_2
REMARK    2  A    between atoms: O_2  and  C_3
REMARK    3  A    between atoms: C_3  and  C_5
REMARK    4  A    between atoms: C_5  and  C_6
REMARK    5  A    between atoms: C_8  and  O_9
REMARK    6  A    between atoms: C_10  and  C_11
REMARK    7  A    between atoms: C_11  and  C_12
REMARK    8  A    between atoms: C_13  and  C_14
REMARK    9  A    between atoms: C_13  and  C_15
REMARK   10  A    between atoms: C_15  and  C_16
REMARK   11  A    between atoms: C_16  and  C_17
REMARK   12  A    between atoms: C_18  and  C_19
REMARK   13  A    between atoms: C_18  and  C_20
REMARK   14  A    between atoms: C_20  and  O_22
REMARK   15  A    between atoms: C_20  and  C_26
REMARK   16  A    between atoms: O_22  and  C_23
REMARK   17  A    between atoms: C_23  and  C_24
REMARK   18  A    between atoms: C_26  and  C_28
REMARK   19  A    between atoms: C_28  and  C_29
REMARK   20  A    between atoms: C_29  and  C_30
REMARK   21  A    between atoms: C_29  and  C_31
REMARK   22  A    between atoms: C_33  and  O_34
REMARK                            x       y       z     vdW  Elec       q    Type
REMARK                         _______ _______ _______ _____ _____    ______ ____
ROOT
ATOM      1  C   UNL     1       1.057  -0.413  -1.641  1.00  0.00    +0.000 C 
ATOM      2  C   UNL     1       0.241   0.027  -0.660  1.00  0.00    +0.000 C 
ATOM      3  C   UNL     1      -0.802  -0.812   0.025  1.00  0.00    +0.000 C 
ENDROOT
BRANCH   2   4
ATOM      4  C   UNL     1       0.397   1.442  -0.127  1.00  0.00    +0.000 C 
BRANCH   4   5
ATOM      5  C   UNL     1      -0.404   2.503  -0.896  1.00  0.00    +0.000 C 
BRANCH   5   6
ATOM      6  C   UNL     1      -1.888   2.447  -0.642  1.00  0.00    +0.000 C 
ATOM      7  C   UNL     1      -2.611   3.217   0.200  1.00  0.00    +0.000 C 
ATOM      8  C   UNL     1      -2.014   4.277   1.093  1.00  0.00    +0.000 C 
BRANCH   7   9
ATOM      9  C   UNL     1      -4.124   3.050   0.295  1.00  0.00    +0.000 C 
BRANCH   9  10
ATOM     10  C   UNL     1      -4.482   2.448   1.673  1.00  0.00    +0.000 C 
ATOM     11  O   UNL     1      -4.863   3.148   2.615  1.00  0.00    +0.000 OA
BRANCH  10  12
ATOM     12  C   UNL     1      -4.372   0.935   1.791  1.00  0.00    +0.000 C 
BRANCH  12  13
ATOM     13  C   UNL     1      -4.064   0.457   3.216  1.00  0.00    +0.000 C 
ATOM     14  C   UNL     1      -4.202  -1.065   3.297  1.00  0.00    +0.000 C 
ATOM     15  C   UNL     1      -2.657   0.873   3.654  1.00  0.00    +0.000 C 
ENDBRANCH  12  13
ENDBRANCH  10  12
ENDBRANCH   9  10
BRANCH   9  16
ATOM     16  O   UNL     1      -4.722   4.332   0.091  1.00  0.00    +0.000 OA
BRANCH  16  17
ATOM     17  C   UNL     1      -6.069   4.286  -0.087  1.00  0.00    +0.000 C 
ATOM     18  C   UNL     1      -6.624   5.673  -0.185  1.00  0.00    +0.000 C 
ATOM     19  O   UNL     1      -6.735   3.263  -0.172  1.00  0.00    +0.000 OA
ENDBRANCH  16  17
ENDBRANCH   9  16
ENDBRANCH   7   9
ENDBRANCH   5   6
ENDBRANCH   4   5
ENDBRANCH   2   4
BRANCH   1  20
ATOM     20  C   UNL     1       1.084  -1.768  -2.299  1.00  0.00    +0.000 C 
BRANCH  20  24
ATOM     21  C   UNL     1       4.807  -3.860  -1.526  1.00  0.00    +0.000 A 
ATOM     22  C   UNL     1       3.685  -4.096  -0.719  1.00  0.00    +0.000 A 
ATOM     23  C   UNL     1       2.484  -3.428  -0.972  1.00  0.00    +0.000 A 
ATOM     24  C   UNL     1       2.369  -2.516  -2.027  1.00  0.00    +0.000 A 
ATOM     25  C   UNL     1       3.500  -2.270  -2.823  1.00  0.00    +0.000 A 
ATOM     26  C   UNL     1       4.699  -2.937  -2.569  1.00  0.00    +0.000 A 
BRANCH  26  27
ATOM     27  O   UNL     1       5.800  -2.696  -3.342  1.00  0.00    +0.000 OA
ATOM     28  H   UNL     1       5.594  -1.972  -3.956  1.00  0.00    +0.000 HD
ENDBRANCH  26  27
BRANCH  23  29
ATOM     29  O   UNL     1       1.396  -3.668  -0.181  1.00  0.00    +0.000 OA
ATOM     30  H   UNL     1       1.673  -4.214   0.572  1.00  0.00    +0.000 HD
ENDBRANCH  23  29
BRANCH  21  31
ATOM     31  C   UNL     1       6.111  -4.569  -1.252  1.00  0.00    +0.000 C 
BRANCH  31  32
ATOM     32  C   UNL     1       7.144  -3.694  -0.574  1.00  0.00    +0.000 C 
ATOM     33  O   UNL     1       6.913  -2.707   0.111  1.00  0.00    +0.000 OA
BRANCH  32  35
ATOM     34  C   UNL     1       9.440  -3.472  -0.167  1.00  0.00    +0.000 C 
ATOM     35  O   UNL     1       8.390  -4.218  -0.781  1.00  0.00    +0.000 OA
ENDBRANCH  32  35
ENDBRANCH  31  32
ENDBRANCH  21  31
ENDBRANCH  20  24
ENDBRANCH   1  20
TORSDOF 16
