REMARK  Name = /srv/my_project/app/compsite/backup/Dave/CORINA_stuff/newPDBs/SANC00407.pdb
AUTHORGENERATED BY OPEN BABEL 2.3.2
REMARK  12 active torsions:
REMARK  status: ('A' for Active; 'I' for Inactive)
REMARK    1  A    between atoms: C_11  and  C_12
REMARK    2  A    between atoms: C_22  and  C_24
REMARK    3  A    between atoms: C_27  and  C_29
REMARK    4  A    between atoms: C_32  and  C_33
REMARK    5  A    between atoms: C_34  and  O_36
REMARK    6  A    between atoms: O_36  and  C_37
REMARK    7  A    between atoms: C_40  and  C_42
REMARK    8  A    between atoms: C_42  and  O_43
REMARK    9  A    between atoms: C_44  and  O_46
REMARK   10  A    between atoms: C_47  and  O_49
REMARK   11  A    between atoms: C_50  and  O_52
REMARK   12  A    between atoms: C_54  and  O_56
REMARK                            x       y       z     vdW  Elec       q    Type
REMARK                         _______ _______ _______ _____ _____    ______ ____
ROOT
ATOM      1  C   UNL     1      -2.267  -0.435   2.938  1.00  0.00    +0.000 C 
ATOM      2  C   UNL     1      -1.243   0.480   3.618  1.00  0.00    +0.000 C 
ATOM      3  C   UNL     1       0.165   0.183   3.112  1.00  0.00    +0.000 C 
ATOM      4  C   UNL     1       0.266   0.275   1.585  1.00  0.00    +0.000 C 
ATOM      5  C   UNL     1      -0.809  -0.620   0.879  1.00  0.00    +0.000 C 
ATOM      6  C   UNL     1      -0.635  -0.589  -0.666  1.00  0.00    +0.000 C 
ATOM      7  C   UNL     1       0.800  -0.909  -1.125  1.00  0.00    +0.000 C 
ATOM      8  C   UNL     1       1.830   0.004  -0.442  1.00  0.00    +0.000 C 
ATOM      9  C   UNL     1       1.623   1.461  -0.931  1.00  0.00    +0.000 C 
ATOM     10  C   UNL     1       1.651  -0.156   1.088  1.00  0.00    +0.000 C 
ATOM     11  C   UNL     1       2.899   0.519   1.646  1.00  0.00    +0.000 C 
ATOM     12  C   UNL     1       3.985  -0.039   0.723  1.00  0.00    +0.000 C 
ATOM     13  O   UNL     1       4.989   0.912   0.385  1.00  0.00    +0.000 OA
ATOM     14  C   UNL     1       5.477   0.513  -0.911  1.00  0.00    +0.000 C 
ATOM     15  C   UNL     1       6.225   1.677  -1.568  1.00  0.00    +0.000 C 
ATOM     16  C   UNL     1       7.529   1.983  -0.836  1.00  0.00    +0.000 C 
ATOM     17  C   UNL     1       8.360   0.708  -0.676  1.00  0.00    +0.000 C 
ATOM     18  C   UNL     1       9.619   0.970   0.143  1.00  0.00    +0.000 C 
ATOM     19  C   UNL     1       7.507  -0.391  -0.042  1.00  0.00    +0.000 C 
ATOM     20  O   UNL     1       6.325  -0.634  -0.805  1.00  0.00    +0.000 OA
ATOM     21  C   UNL     1       4.193   0.143  -1.681  1.00  0.00    +0.000 C 
ATOM     22  C   UNL     1       4.390  -0.792  -2.868  1.00  0.00    +0.000 C 
ATOM     23  C   UNL     1       3.305  -0.471  -0.594  1.00  0.00    +0.000 C 
ATOM     24  C   UNL     1      -2.278  -0.308   1.376  1.00  0.00    +0.000 C 
ATOM     25  C   UNL     1      -2.679   1.133   0.949  1.00  0.00    +0.000 C 
ATOM     26  C   UNL     1      -3.297  -1.374   0.782  1.00  0.00    +0.000 C 
ATOM     27  C   UNL     1      -4.097  -2.128   1.864  1.00  0.00    +0.000 C 
ATOM     28  C   UNL     1      -4.699  -1.192   2.911  1.00  0.00    +0.000 C 
ATOM     29  C   UNL     1      -3.670  -0.247   3.539  1.00  0.00    +0.000 C 
ENDROOT
BRANCH  28  30
ATOM     30  O   UNL     1      -5.776  -0.451   2.341  1.00  0.00    +0.000 OA
ATOM     31  H   UNL     1      -5.418   0.095   1.612  1.00  0.00    +0.000 HD
ENDBRANCH  28  30
BRANCH  26  32
ATOM     32  O   UNL     1      -4.220  -0.714  -0.093  1.00  0.00    +0.000 OA
BRANCH  32  33
ATOM     33  C   UNL     1      -4.873  -1.552  -1.046  1.00  0.00    +0.000 C 
ATOM     34  O   UNL     1      -4.353  -1.274  -2.348  1.00  0.00    +0.000 OA
ATOM     35  C   UNL     1      -5.021  -0.217  -3.069  1.00  0.00    +0.000 C 
ATOM     36  C   UNL     1      -5.711   0.799  -2.151  1.00  0.00    +0.000 C 
ATOM     37  C   UNL     1      -6.790   0.095  -1.310  1.00  0.00    +0.000 C 
ATOM     38  C   UNL     1      -6.400  -1.347  -0.945  1.00  0.00    +0.000 C 
BRANCH  36  39
ATOM     39  O   UNL     1      -6.335   1.850  -2.901  1.00  0.00    +0.000 OA
ATOM     40  H   UNL     1      -6.727   2.446  -2.234  1.00  0.00    +0.000 HD
ENDBRANCH  36  39
BRANCH  37  41
ATOM     41  O   UNL     1      -7.018   0.898  -0.137  1.00  0.00    +0.000 OA
ATOM     42  H   UNL     1      -7.701   0.453   0.397  1.00  0.00    +0.000 HD
ENDBRANCH  37  41
BRANCH  38  43
ATOM     43  O   UNL     1      -7.098  -2.247  -1.822  1.00  0.00    +0.000 OA
ATOM     44  H   UNL     1      -6.812  -3.154  -1.614  1.00  0.00    +0.000 HD
ENDBRANCH  38  43
BRANCH  35  45
ATOM     45  C   UNL     1      -3.961   0.438  -3.966  1.00  0.00    +0.000 C 
BRANCH  45  46
ATOM     46  O   UNL     1      -2.853   0.889  -3.184  1.00  0.00    +0.000 OA
ATOM     47  H   UNL     1      -2.674   0.163  -2.558  1.00  0.00    +0.000 HD
ENDBRANCH  45  46
ENDBRANCH  35  45
ENDBRANCH  32  33
ENDBRANCH  26  32
TORSDOF 8
