REMARK  Name = /srv/my_project/app/compsite/backup/Dave/CORINA_stuff/newPDBs/SANC00590.pdb
AUTHORGENERATED BY OPEN BABEL 2.3.2
REMARK  12 active torsions:
REMARK  status: ('A' for Active; 'I' for Inactive)
REMARK    1  A    between atoms: C_5  and  C_6
REMARK    2  A    between atoms: C_7  and  C_8
REMARK    3  A    between atoms: C_8  and  C_9
REMARK    4  A    between atoms: C_9  and  C_10
REMARK    5  A    between atoms: C_11  and  C_12
REMARK    6  A    between atoms: C_18  and  C_19
REMARK    7  A    between atoms: C_18  and  C_20
REMARK    8  A    between atoms: C_21  and  O_23
REMARK    9  A    between atoms: C_26  and  C_27
REMARK   10  A    between atoms: C_28  and  C_29
REMARK   11  A    between atoms: C_34  and  C_35
REMARK   12  A    between atoms: C_34  and  C_36
REMARK                            x       y       z     vdW  Elec       q    Type
REMARK                         _______ _______ _______ _____ _____    ______ ____
ROOT
ATOM      1  C   UNL     1      -0.589  -1.478  -0.603  1.00  0.00    +0.000 C 
ENDROOT
BRANCH   1   2
ATOM      2  C   UNL     1      -1.256  -0.111  -0.478  1.00  0.00    +0.000 C 
ATOM      3  C   UNL     1      -1.069   0.859  -1.415  1.00  0.00    +0.000 C 
ATOM      4  C   UNL     1      -0.134   0.749  -2.598  1.00  0.00    +0.000 C 
ATOM      5  C   UNL     1      -1.821   2.182  -1.416  1.00  0.00    +0.000 C 
ATOM      6  C   UNL     1      -2.915   2.346  -0.366  1.00  0.00    +0.000 C 
ATOM      7  C   UNL     1      -3.431   0.988   0.098  1.00  0.00    +0.000 C 
ATOM      8  O   UNL     1      -4.484   1.203   1.036  1.00  0.00    +0.000 OA
ATOM      9  C   UNL     1      -5.665   0.392   0.888  1.00  0.00    +0.000 C 
ATOM     10  C   UNL     1      -6.662   1.014   1.886  1.00  0.00    +0.000 C 
ATOM     11  C   UNL     1      -6.288   0.555  -0.515  1.00  0.00    +0.000 C 
ATOM     12  C   UNL     1      -5.437  -1.127   1.204  1.00  0.00    +0.000 C 
ATOM     13  C   UNL     1      -4.129  -1.738   0.668  1.00  0.00    +0.000 C 
ATOM     14  C   UNL     1      -2.877  -1.158   1.342  1.00  0.00    +0.000 C 
ATOM     15  C   UNL     1      -2.275   0.122   0.684  1.00  0.00    +0.000 C 
ATOM     16  C   UNL     1      -1.550   0.878   1.831  1.00  0.00    +0.000 C 
BRANCH  12  17
ATOM     17  O   UNL     1      -5.462  -1.407   2.613  1.00  0.00    +0.000 OA
ATOM     18  H   UNL     1      -6.359  -1.235   2.943  1.00  0.00    +0.000 HD
ENDBRANCH  12  17
ENDBRANCH   1   2
BRANCH   1  19
ATOM     19  C   UNL     1       0.496  -1.834   0.435  1.00  0.00    +0.000 C 
BRANCH  19  25
ATOM     20  C   UNL     1       4.147  -0.463  -0.206  1.00  0.00    +0.000 C 
ATOM     21  C   UNL     1       4.859  -1.779  -0.470  1.00  0.00    +0.000 C 
ATOM     22  C   UNL     1       3.947  -2.688  -1.282  1.00  0.00    +0.000 C 
ATOM     23  C   UNL     1       2.476  -2.643  -0.901  1.00  0.00    +0.000 C 
ATOM     24  C   UNL     1       1.700  -3.764  -1.558  1.00  0.00    +0.000 C 
ATOM     25  C   UNL     1       1.947  -1.727  -0.043  1.00  0.00    +0.000 C 
ATOM     26  C   UNL     1       2.856  -0.669   0.644  1.00  0.00    +0.000 C 
ATOM     27  C   UNL     1       3.196  -1.241   2.050  1.00  0.00    +0.000 C 
ATOM     28  C   UNL     1       2.213   0.733   0.896  1.00  0.00    +0.000 C 
ATOM     29  C   UNL     1       2.373   1.753  -0.223  1.00  0.00    +0.000 C 
ATOM     30  C   UNL     1       3.666   2.540  -0.115  1.00  0.00    +0.000 C 
ATOM     31  O   UNL     1       3.631   3.772  -0.218  1.00  0.00    +0.000 OA
ATOM     32  C   UNL     1       5.022   1.783   0.005  1.00  0.00    +0.000 C 
ATOM     33  C   UNL     1       5.863   2.532   1.053  1.00  0.00    +0.000 C 
ATOM     34  C   UNL     1       5.742   1.877  -1.349  1.00  0.00    +0.000 C 
ATOM     35  O   UNL     1       5.038   0.430   0.455  1.00  0.00    +0.000 OA
ENDBRANCH  19  25
ENDBRANCH   1  19
TORSDOF 4
