REMARK  Name = /srv/my_project/app/compsite/backup/Dave/CORINA_stuff/newPDBs/SANC00142.pdb
AUTHORGENERATED BY OPEN BABEL 2.3.2
REMARK  16 active torsions:
REMARK  status: ('A' for Active; 'I' for Inactive)
REMARK    1  A    between atoms: C_2  and  C_3
REMARK    2  A    between atoms: C_3  and  C_4
REMARK    3  A    between atoms: C_4  and  C_5
REMARK    4  A    between atoms: C_5  and  C_6
REMARK    5  A    between atoms: C_6  and  C_7
REMARK    6  A    between atoms: C_7  and  C_8
REMARK    7  A    between atoms: C_8  and  C_9
REMARK    8  A    between atoms: C_10  and  C_11
REMARK    9  A    between atoms: C_11  and  C_12
REMARK   10  A    between atoms: C_12  and  O_14
REMARK   11  A    between atoms: C_12  and  C_18
REMARK   12  A    between atoms: O_14  and  C_15
REMARK   13  A    between atoms: C_15  and  C_16
REMARK   14  A    between atoms: C_18  and  C_20
REMARK   15  A    between atoms: C_18  and  N_21
REMARK   16  A    between atoms: C_22  and  C_23
REMARK                            x       y       z     vdW  Elec       q    Type
REMARK                         _______ _______ _______ _____ _____    ______ ____
ROOT
ATOM      1  C   UNL     1      -2.892   0.042  -0.727  1.00  0.00    +0.000 C 
ENDROOT
BRANCH   1   2
ATOM      2  C   UNL     1      -4.024  -1.024  -0.797  1.00  0.00    +0.000 C 
ATOM      3  C   UNL     1      -3.869  -1.973  -1.988  1.00  0.00    +0.000 C 
BRANCH   2   4
ATOM      4  N   UNL     1      -5.340  -0.381  -0.870  1.00  0.00    +0.000 N 
ATOM      5  C   UNL     1      -6.495  -1.005  -0.468  1.00  0.00    +0.000 C 
ATOM      6  C   UNL     1      -7.732  -0.158  -0.599  1.00  0.00    +0.000 C 
ATOM      7  O   UNL     1      -6.531  -2.146  -0.019  1.00  0.00    +0.000 OA
ATOM      8  H   UNL     1      -5.382   0.590  -1.179  1.00  0.00    +0.000 HD
ENDBRANCH   2   4
ENDBRANCH   1   2
BRANCH   1   9
ATOM      9  C   UNL     1      -1.485  -0.584  -0.664  1.00  0.00    +0.000 C 
BRANCH   9  11
ATOM     10  C   UNL     1       0.484   0.641   0.318  1.00  0.00    +0.000 C 
ATOM     11  C   UNL     1      -0.396   0.461  -0.680  1.00  0.00    +0.000 C 
BRANCH  10  12
ATOM     12  C   UNL     1       1.565   1.686   0.304  1.00  0.00    +0.000 C 
BRANCH  12  13
ATOM     13  C   UNL     1       2.978   1.097   0.222  1.00  0.00    +0.000 C 
BRANCH  13  14
ATOM     14  C   UNL     1       3.374   0.297   1.468  1.00  0.00    +0.000 C 
BRANCH  14  15
ATOM     15  C   UNL     1       4.849  -0.119   1.476  1.00  0.00    +0.000 C 
BRANCH  15  16
ATOM     16  C   UNL     1       5.205  -1.103   0.356  1.00  0.00    +0.000 C 
BRANCH  16  17
ATOM     17  C   UNL     1       6.622  -1.676   0.480  1.00  0.00    +0.000 C 
BRANCH  17  19
ATOM     18  C   UNL     1       8.550  -0.631  -0.742  1.00  0.00    +0.000 C 
ATOM     19  C   UNL     1       7.699  -0.646   0.292  1.00  0.00    +0.000 C 
ENDBRANCH  17  19
ENDBRANCH  16  17
ENDBRANCH  15  16
ENDBRANCH  14  15
ENDBRANCH  13  14
ENDBRANCH  12  13
ENDBRANCH  10  12
ENDBRANCH   9  11
ENDBRANCH   1   9
BRANCH   1  20
ATOM     20  O   UNL     1      -3.049   0.821   0.491  1.00  0.00    +0.000 OA
BRANCH  20  21
ATOM     21  C   UNL     1      -3.843   1.921   0.418  1.00  0.00    +0.000 C 
ATOM     22  C   UNL     1      -3.842   2.645   1.728  1.00  0.00    +0.000 C 
ATOM     23  O   UNL     1      -4.487   2.265  -0.565  1.00  0.00    +0.000 OA
ENDBRANCH  20  21
ENDBRANCH   1  20
TORSDOF 13
