REMARK  Name = /srv/my_project/app/compsite/backup/Dave/CORINA_stuff/newPDBs/SANC00403.pdb
AUTHORGENERATED BY OPEN BABEL 2.3.2
REMARK  26 active torsions:
REMARK  status: ('A' for Active; 'I' for Inactive)
REMARK    1  A    between atoms: C_11  and  C_12
REMARK    2  A    between atoms: C_16  and  O_18
REMARK    3  A    between atoms: O_18  and  C_19
REMARK    4  A    between atoms: C_22  and  C_24
REMARK    5  A    between atoms: C_24  and  O_25
REMARK    6  A    between atoms: C_26  and  O_28
REMARK    7  A    between atoms: C_29  and  O_31
REMARK    8  A    between atoms: C_32  and  O_34
REMARK    9  A    between atoms: C_35  and  C_37
REMARK   10  A    between atoms: C_37  and  C_39
REMARK   11  A    between atoms: C_37  and  C_40
REMARK   12  A    between atoms: C_40  and  O_42
REMARK   13  A    between atoms: C_40  and  C_43
REMARK   14  A    between atoms: C_43  and  C_44
REMARK   15  A    between atoms: C_44  and  C_45
REMARK   16  A    between atoms: C_45  and  C_46
REMARK   17  A    between atoms: C_45  and  C_47
REMARK   18  A    between atoms: C_48  and  C_49
REMARK   19  A    between atoms: C_50  and  O_52
REMARK   20  A    between atoms: O_52  and  C_53
REMARK   21  A    between atoms: C_56  and  C_58
REMARK   22  A    between atoms: C_58  and  O_59
REMARK   23  A    between atoms: C_60  and  O_62
REMARK   24  A    between atoms: C_63  and  O_65
REMARK   25  A    between atoms: C_66  and  O_68
REMARK   26  A    between atoms: C_70  and  O_72
REMARK                            x       y       z     vdW  Elec       q    Type
REMARK                         _______ _______ _______ _____ _____    ______ ____
ROOT
ATOM      1  C   UNL     1       3.195  -3.397  -0.779  1.00  0.00    +0.000 C 
ATOM      2  C   UNL     1       3.873  -2.407   0.176  1.00  0.00    +0.000 C 
ATOM      3  C   UNL     1       3.480  -0.968  -0.142  1.00  0.00    +0.000 C 
ATOM      4  C   UNL     1       1.958  -0.771  -0.151  1.00  0.00    +0.000 C 
ATOM      5  C   UNL     1       1.267  -1.779  -1.124  1.00  0.00    +0.000 C 
ATOM      6  C   UNL     1      -0.259  -1.509  -1.245  1.00  0.00    +0.000 C 
ATOM      7  C   UNL     1      -0.601  -0.038  -1.543  1.00  0.00    +0.000 C 
ATOM      8  C   UNL     1       0.061   0.920  -0.536  1.00  0.00    +0.000 C 
ATOM      9  C   UNL     1      -0.567   0.708   0.859  1.00  0.00    +0.000 C 
ATOM     10  C   UNL     1       1.581   0.653  -0.579  1.00  0.00    +0.000 C 
ATOM     11  C   UNL     1       2.166   1.832   0.189  1.00  0.00    +0.000 C 
ATOM     12  C   UNL     1       1.287   3.049  -0.213  1.00  0.00    +0.000 C 
ATOM     13  C   UNL     1       0.064   2.421  -0.971  1.00  0.00    +0.000 C 
ATOM     14  C   UNL     1       1.637  -3.279  -0.797  1.00  0.00    +0.000 C 
ATOM     15  C   UNL     1       1.054  -3.672   0.593  1.00  0.00    +0.000 C 
ATOM     16  C   UNL     1       1.076  -4.223  -1.942  1.00  0.00    +0.000 C 
ATOM     17  C   UNL     1       2.103  -5.253  -2.457  1.00  0.00    +0.000 C 
ATOM     18  C   UNL     1       2.928  -5.886  -1.342  1.00  0.00    +0.000 C 
ATOM     19  C   UNL     1       3.662  -4.839  -0.494  1.00  0.00    +0.000 C 
ENDROOT
BRANCH  18  20
ATOM     20  O   UNL     1       2.075  -6.695  -0.526  1.00  0.00    +0.000 OA
ATOM     21  H   UNL     1       2.646  -7.125   0.138  1.00  0.00    +0.000 HD
ENDBRANCH  18  20
BRANCH  13  22
ATOM     22  C   UNL     1      -1.303   3.168  -1.029  1.00  0.00    +0.000 C 
ATOM     23  C   UNL     1      -1.177   4.298  -2.073  1.00  0.00    +0.000 C 
BRANCH  22  24
ATOM     24  C   UNL     1      -1.867   3.678   0.324  1.00  0.00    +0.000 C 
BRANCH  24  25
ATOM     25  O   UNL     1      -1.506   5.037   0.563  1.00  0.00    +0.000 OA
ATOM     26  H   UNL     1      -0.562   5.105   0.326  1.00  0.00    +0.000 HD
ENDBRANCH  24  25
BRANCH  24  27
ATOM     27  C   UNL     1      -3.395   3.540   0.476  1.00  0.00    +0.000 C 
BRANCH  27  28
ATOM     28  C   UNL     1      -4.230   4.338  -0.532  1.00  0.00    +0.000 C 
BRANCH  28  29
ATOM     29  C   UNL     1      -5.753   4.311  -0.290  1.00  0.00    +0.000 C 
ATOM     30  C   UNL     1      -6.329   2.896  -0.346  1.00  0.00    +0.000 C 
ATOM     31  C   UNL     1      -6.150   4.999   1.017  1.00  0.00    +0.000 C 
ENDBRANCH  28  29
ENDBRANCH  27  28
ENDBRANCH  24  27
ENDBRANCH  22  24
ENDBRANCH  13  22
BRANCH  16  32
ATOM     32  O   UNL     1      -0.092  -4.881  -1.454  1.00  0.00    +0.000 OA
BRANCH  32  33
ATOM     33  C   UNL     1      -0.975  -5.417  -2.433  1.00  0.00    +0.000 C 
ATOM     34  O   UNL     1      -2.246  -4.780  -2.274  1.00  0.00    +0.000 OA
ATOM     35  C   UNL     1      -3.055  -5.283  -1.190  1.00  0.00    +0.000 C 
ATOM     36  C   UNL     1      -2.293  -6.135  -0.168  1.00  0.00    +0.000 C 
ATOM     37  C   UNL     1      -1.604  -7.313  -0.874  1.00  0.00    +0.000 C 
ATOM     38  C   UNL     1      -1.056  -6.949  -2.263  1.00  0.00    +0.000 C 
BRANCH  38  39
ATOM     39  O   UNL     1      -1.883  -7.516  -3.291  1.00  0.00    +0.000 OA
ATOM     40  H   UNL     1      -1.871  -8.482  -3.171  1.00  0.00    +0.000 HD
ENDBRANCH  38  39
BRANCH  37  41
ATOM     41  O   UNL     1      -0.556  -7.808  -0.017  1.00  0.00    +0.000 OA
ATOM     42  H   UNL     1       0.221  -7.213  -0.128  1.00  0.00    +0.000 HD
ENDBRANCH  37  41
BRANCH  36  43
ATOM     43  O   UNL     1      -3.166  -6.645   0.848  1.00  0.00    +0.000 OA
ATOM     44  H   UNL     1      -2.626  -7.268   1.373  1.00  0.00    +0.000 HD
ENDBRANCH  36  43
BRANCH  35  45
ATOM     45  C   UNL     1      -3.704  -4.063  -0.523  1.00  0.00    +0.000 C 
BRANCH  45  46
ATOM     46  O   UNL     1      -4.383  -3.276  -1.507  1.00  0.00    +0.000 OA
ATOM     47  H   UNL     1      -3.791  -3.280  -2.284  1.00  0.00    +0.000 HD
ENDBRANCH  45  46
ENDBRANCH  35  45
ENDBRANCH  32  33
ENDBRANCH  16  32
BRANCH  12  48
ATOM     48  O   UNL     1       0.916   3.804   0.941  1.00  0.00    +0.000 OA
BRANCH  48  49
ATOM     49  C   UNL     1       1.946   4.704   1.409  1.00  0.00    +0.000 C 
ATOM     50  O   UNL     1       3.154   3.991   1.660  1.00  0.00    +0.000 OA
ATOM     51  C   UNL     1       4.134   4.646   2.490  1.00  0.00    +0.000 C 
ATOM     52  C   UNL     1       3.874   6.136   2.744  1.00  0.00    +0.000 C 
ATOM     53  C   UNL     1       2.440   6.407   3.210  1.00  0.00    +0.000 C 
ATOM     54  C   UNL     1       1.432   5.365   2.703  1.00  0.00    +0.000 C 
BRANCH  52  55
ATOM     55  O   UNL     1       4.097   6.838   1.509  1.00  0.00    +0.000 OA
ATOM     56  H   UNL     1       4.146   7.789   1.722  1.00  0.00    +0.000 HD
ENDBRANCH  52  55
BRANCH  53  57
ATOM     57  O   UNL     1       2.393   6.453   4.642  1.00  0.00    +0.000 OA
ATOM     58  H   UNL     1       1.466   6.663   4.871  1.00  0.00    +0.000 HD
ENDBRANCH  53  57
BRANCH  54  59
ATOM     59  O   UNL     1       0.172   6.033   2.558  1.00  0.00    +0.000 OA
ATOM     60  H   UNL     1      -0.482   5.376   2.238  1.00  0.00    +0.000 HD
ENDBRANCH  54  59
BRANCH  51  61
ATOM     61  C   UNL     1       4.250   3.841   3.792  1.00  0.00    +0.000 C 
BRANCH  61  62
ATOM     62  O   UNL     1       4.602   2.489   3.488  1.00  0.00    +0.000 OA
ATOM     63  H   UNL     1       4.036   2.234   2.733  1.00  0.00    +0.000 HD
ENDBRANCH  61  62
ENDBRANCH  51  61
ENDBRANCH  48  49
ENDBRANCH  12  48
TORSDOF 21
