REMARK  Name = /srv/my_project/app/compsite/backup/Dave/CORINA_stuff/newPDBs/SANC00311.pdb
AUTHORGENERATED BY OPEN BABEL 2.3.2
REMARK  1 active torsions:
REMARK  status: ('A' for Active; 'I' for Inactive)
REMARK    1  A    between atoms: O_1  and  C_2
REMARK                            x       y       z     vdW  Elec       q    Type
REMARK                         _______ _______ _______ _____ _____    ______ ____
ROOT
ATOM      1  C   UNL     1      -3.493   0.914  -0.214  1.00  0.00    +0.000 C 
ATOM      2  C   UNL     1      -2.738   0.832  -1.509  1.00  0.00    +0.000 C 
ATOM      3  C   UNL     1      -1.538   0.240  -1.637  1.00  0.00    +0.000 C 
ATOM      4  C   UNL     1      -0.782  -0.361  -0.471  1.00  0.00    +0.000 C 
ATOM      5  C   UNL     1      -0.858  -1.901  -0.500  1.00  0.00    +0.000 C 
ATOM      6  C   UNL     1      -0.868  -2.316   0.974  1.00  0.00    +0.000 C 
ATOM      7  N   UNL     1      -0.870  -1.079   1.786  1.00  0.00    +0.000 NA
ATOM      8  C   UNL     1       0.524  -0.672   2.100  1.00  0.00    +0.000 C 
ATOM      9  C   UNL     1       1.335  -0.178   0.909  1.00  0.00    +0.000 A 
ATOM     10  C   UNL     1       2.698   0.112   1.085  1.00  0.00    +0.000 A 
ATOM     11  C   UNL     1       3.401   0.583  -0.001  1.00  0.00    +0.000 A 
ATOM     12  O   UNL     1       4.721   0.910  -0.010  1.00  0.00    +0.000 OA
ATOM     13  C   UNL     1       4.886   1.329  -1.380  1.00  0.00    +0.000 C 
ATOM     14  O   UNL     1       3.676   1.235  -2.160  1.00  0.00    +0.000 OA
ATOM     15  C   UNL     1       2.804   0.770  -1.225  1.00  0.00    +0.000 A 
ATOM     16  C   UNL     1       1.468   0.500  -1.440  1.00  0.00    +0.000 A 
ATOM     17  C   UNL     1       0.705   0.026  -0.360  1.00  0.00    +0.000 A 
ATOM     18  C   UNL     1      -1.446  -0.034   0.895  1.00  0.00    +0.000 C 
ATOM     19  C   UNL     1      -2.981  -0.074   0.839  1.00  0.00    +0.000 C 
ENDROOT
BRANCH   1  20
ATOM     20  O   UNL     1      -3.376   2.240   0.286  1.00  0.00    +0.000 OA
ATOM     21  H   UNL     1      -3.526   2.851  -0.454  1.00  0.00    +0.000 HD
ENDBRANCH   1  20
TORSDOF 1
