REMARK  Name = SANCDB_01092_minRM1.pdb
AUTHORGENERATED BY OPEN BABEL 2.3.2
REMARK  11 active torsions:
REMARK  status: ('A' for Active; 'I' for Inactive)
REMARK    1  A    between atoms: C_1  and  O_2
REMARK    2  A    between atoms: O_2  and  C_3
REMARK    3  A    between atoms: C_6  and  C_9
REMARK    4  A    between atoms: C_10  and  O_26
REMARK    5  A    between atoms: C_14  and  O_25
REMARK    6  A    between atoms: C_15  and  O_23
REMARK    7  A    between atoms: C_16  and  O_22
REMARK    8  A    between atoms: C_17  and  O_20
REMARK    9  A    between atoms: O_20  and  C_21
REMARK   10  A    between atoms: O_23  and  C_24
REMARK   11  A    between atoms: O_26  and  C_27
REMARK                            x       y       z     vdW  Elec       q    Type
REMARK                         _______ _______ _______ _____ _____    ______ ____
ROOT
ATOM      1  C   UNL     1       0.557   0.416   0.386  1.00  0.00    +0.000 A 
ATOM      2  C   UNL     1      -0.026   1.275   1.243  1.00  0.00    +0.000 A 
ATOM      3  C   UNL     1      -1.484   1.106   1.495  1.00  0.00    +0.000 A 
ATOM      4  O   UNL     1      -2.128   1.856   2.224  1.00  0.00    +0.000 OA
ATOM      5  C   UNL     1      -2.168  -0.012   0.825  1.00  0.00    +0.000 A 
ATOM      6  C   UNL     1      -3.532  -0.262   1.048  1.00  0.00    +0.000 A 
ATOM      7  C   UNL     1      -4.151  -1.344   0.418  1.00  0.00    +0.000 A 
ATOM      8  C   UNL     1      -3.407  -2.167  -0.427  1.00  0.00    +0.000 A 
ATOM      9  C   UNL     1      -2.054  -1.904  -0.682  1.00  0.00    +0.000 A 
ATOM     10  C   UNL     1      -1.429  -0.832  -0.031  1.00  0.00    +0.000 A 
ATOM     11  O   UNL     1      -0.088  -0.638  -0.233  1.00  0.00    +0.000 OA
ENDROOT
BRANCH   1  15
ATOM     12  C   UNL     1       4.717   0.559  -0.695  1.00  0.00    +0.000 A 
ATOM     13  C   UNL     1       3.930   1.705  -0.800  1.00  0.00    +0.000 A 
ATOM     14  C   UNL     1       2.576   1.665  -0.443  1.00  0.00    +0.000 A 
ATOM     15  C   UNL     1       1.990   0.484   0.030  1.00  0.00    +0.000 A 
ATOM     16  C   UNL     1       2.786  -0.665   0.123  1.00  0.00    +0.000 A 
ATOM     17  C   UNL     1       4.136  -0.624  -0.235  1.00  0.00    +0.000 A 
BRANCH  12  19
ATOM     18  C   UNL     1       6.688   1.647  -1.456  1.00  0.00    +0.000 C 
ATOM     19  O   UNL     1       6.043   0.461  -1.009  1.00  0.00    +0.000 OA
ENDBRANCH  12  19
ENDBRANCH   1  15
BRANCH   9  20
ATOM     20  O   UNL     1      -1.449  -2.799  -1.532  1.00  0.00    +0.000 OA
ATOM     21  C   UNL     1      -0.534  -2.233  -2.468  1.00  0.00    +0.000 C 
ENDBRANCH   9  20
BRANCH   8  22
ATOM     22  O   UNL     1      -4.007  -3.244  -1.031  1.00  0.00    +0.000 OA
ATOM     23  H   UNL     1      -3.293  -3.717  -1.500  1.00  0.00    +0.000 HD
ENDBRANCH   8  22
BRANCH   7  24
ATOM     24  O   UNL     1      -5.461  -1.644   0.692  1.00  0.00    +0.000 OA
ATOM     25  C   UNL     1      -6.317  -1.002  -0.250  1.00  0.00    +0.000 C 
ENDBRANCH   7  24
BRANCH   6  26
ATOM     26  O   UNL     1      -4.296   0.525   1.875  1.00  0.00    +0.000 OA
ATOM     27  H   UNL     1      -3.729   1.233   2.252  1.00  0.00    +0.000 HD
ENDBRANCH   6  26
BRANCH   2  28
ATOM     28  O   UNL     1       0.686   2.307   1.836  1.00  0.00    +0.000 OA
ATOM     29  C   UNL     1       0.504   2.398   3.247  1.00  0.00    +0.000 C 
ENDBRANCH   2  28
TORSDOF 7
