REMARK  Name = /srv/my_project/app/compsite/backup/Dave/CORINA_stuff/newPDBs/SANC00284.pdb
AUTHORGENERATED BY OPEN BABEL 2.3.2
REMARK  8 active torsions:
REMARK  status: ('A' for Active; 'I' for Inactive)
REMARK    1  A    between atoms: C_4  and  C_5
REMARK    2  A    between atoms: C_5  and  O_6
REMARK    3  A    between atoms: C_7  and  O_9
REMARK    4  A    between atoms: C_10  and  O_12
REMARK    5  A    between atoms: C_20  and  O_21
REMARK    6  A    between atoms: C_22  and  O_23
REMARK    7  A    between atoms: O_23  and  C_24
REMARK    8  A    between atoms: C_25  and  O_26
REMARK                            x       y       z     vdW  Elec       q    Type
REMARK                         _______ _______ _______ _____ _____    ______ ____
ROOT
ATOM      1  C   UNL     1      -0.629   0.231  -0.029  1.00  0.00    +0.000 C 
ATOM      2  O   UNL     1      -0.883  -0.611   1.097  1.00  0.00    +0.000 OA
ATOM      3  C   UNL     1      -2.276  -0.747   1.431  1.00  0.00    +0.000 C 
ATOM      4  C   UNL     1      -3.074  -1.293   0.234  1.00  0.00    +0.000 C 
ATOM      5  C   UNL     1      -2.736  -0.577  -1.080  1.00  0.00    +0.000 C 
ATOM      6  C   UNL     1      -1.224  -0.454  -1.257  1.00  0.00    +0.000 C 
ATOM      7  O   UNL     1      -0.964   0.284  -2.461  1.00  0.00    +0.000 OA
ATOM      8  C   UNL     1       0.328   0.590  -2.749  1.00  0.00    +0.000 C 
ATOM      9  O   UNL     1       0.670   0.914  -3.877  1.00  0.00    +0.000 OA
ATOM     10  C   UNL     1       1.294   0.555  -1.613  1.00  0.00    +0.000 A 
ATOM     11  C   UNL     1       2.654   0.748  -1.904  1.00  0.00    +0.000 A 
ATOM     12  C   UNL     1       3.574   0.814  -0.869  1.00  0.00    +0.000 A 
ATOM     13  C   UNL     1       3.156   0.689   0.452  1.00  0.00    +0.000 A 
ATOM     14  C   UNL     1       1.797   0.541   0.745  1.00  0.00    +0.000 A 
ATOM     15  C   UNL     1       0.851   0.415  -0.279  1.00  0.00    +0.000 A 
ENDROOT
BRANCH   4  16
ATOM     16  O   UNL     1      -4.486  -1.227   0.463  1.00  0.00    +0.000 OA
ATOM     17  H   UNL     1      -4.890  -1.564  -0.363  1.00  0.00    +0.000 HD
ENDBRANCH   4  16
BRANCH   5  18
ATOM     18  O   UNL     1      -3.314  -1.330  -2.162  1.00  0.00    +0.000 OA
ATOM     19  H   UNL     1      -2.996  -0.910  -2.986  1.00  0.00    +0.000 HD
ENDBRANCH   5  18
BRANCH  12  20
ATOM     20  O   UNL     1       4.886   1.032  -1.174  1.00  0.00    +0.000 OA
ATOM     21  H   UNL     1       5.338   1.223  -0.332  1.00  0.00    +0.000 HD
ENDBRANCH  12  20
BRANCH  13  22
ATOM     22  O   UNL     1       4.072   0.778   1.470  1.00  0.00    +0.000 OA
ATOM     23  C   UNL     1       4.550  -0.533   1.800  1.00  0.00    +0.000 C 
ENDBRANCH  13  22
BRANCH  14  24
ATOM     24  O   UNL     1       1.399   0.561   2.054  1.00  0.00    +0.000 OA
ATOM     25  H   UNL     1       2.180   0.804   2.584  1.00  0.00    +0.000 HD
ENDBRANCH  14  24
BRANCH   3  26
ATOM     26  C   UNL     1      -2.844   0.532   2.074  1.00  0.00    +0.000 C 
BRANCH  26  27
ATOM     27  O   UNL     1      -3.323   1.466   1.109  1.00  0.00    +0.000 OA
ATOM     28  H   UNL     1      -4.220   1.160   0.870  1.00  0.00    +0.000 HD
ENDBRANCH  26  27
ENDBRANCH   3  26
TORSDOF 7
