REMARK  Name = SANCDB_00876_minRM1.pdb
AUTHORGENERATED BY OPEN BABEL 2.3.2
REMARK  7 active torsions:
REMARK  status: ('A' for Active; 'I' for Inactive)
REMARK    1  A    between atoms: C_1  and  C_2
REMARK    2  A    between atoms: C_5  and  C_22
REMARK    3  A    between atoms: C_6  and  C_21
REMARK    4  A    between atoms: C_12  and  C_13
REMARK    5  A    between atoms: C_12  and  C_14
REMARK    6  A    between atoms: C_14  and  C_15
REMARK    7  A    between atoms: C_15  and  C_16
REMARK                            x       y       z     vdW  Elec       q    Type
REMARK                         _______ _______ _______ _____ _____    ______ ____
ROOT
ATOM      1  C   UNL     1       1.784  -0.234   2.559  1.00  0.00    +0.000 C 
ATOM      2  C   UNL     1       0.507  -0.499   1.750  1.00  0.00    +0.000 C 
ATOM      3  C   UNL     1      -0.705  -0.267   2.664  1.00  0.00    +0.000 C 
ATOM      4  C   UNL     1      -2.025  -0.017   1.946  1.00  0.00    +0.000 C 
ATOM      5  C   UNL     1      -2.157  -0.658   0.549  1.00  0.00    +0.000 C 
ATOM      6  C   UNL     1      -3.537  -0.250  -0.090  1.00  0.00    +0.000 C 
ATOM      7  C   UNL     1      -3.585  -0.570  -1.575  1.00  0.00    +0.000 C 
ATOM      8  O   UNL     1      -4.590  -1.067  -2.086  1.00  0.00    +0.000 OA
ATOM      9  C   UNL     1      -2.387  -0.230  -2.422  1.00  0.00    +0.000 C 
ATOM     10  C   UNL     1      -1.296   0.468  -1.627  1.00  0.00    +0.000 C 
ATOM     11  C   UNL     1      -0.905  -0.343  -0.372  1.00  0.00    +0.000 C 
ATOM     12  C   UNL     1       0.395   0.226   0.363  1.00  0.00    +0.000 C 
ATOM     13  C   UNL     1       0.320   1.762   0.521  1.00  0.00    +0.000 C 
ATOM     14  C   UNL     1      -4.005   1.194   0.115  1.00  0.00    +0.000 C 
ATOM     15  C   UNL     1      -2.227  -2.206   0.746  1.00  0.00    +0.000 C 
ENDROOT
BRANCH  12  16
ATOM     16  C   UNL     1       1.646  -0.160  -0.524  1.00  0.00    +0.000 C 
BRANCH  16  17
ATOM     17  C   UNL     1       2.879   0.758  -0.452  1.00  0.00    +0.000 C 
BRANCH  17  18
ATOM     18  C   UNL     1       4.048   0.175  -1.175  1.00  0.00    +0.000 A 
ATOM     19  C   UNL     1       5.042  -0.624  -0.647  1.00  0.00    +0.000 A 
ATOM     20  O   UNL     1       5.943  -0.969  -1.601  1.00  0.00    +0.000 OA
ATOM     21  C   UNL     1       5.534  -0.389  -2.757  1.00  0.00    +0.000 A 
ATOM     22  C   UNL     1       4.377   0.326  -2.552  1.00  0.00    +0.000 A 
ENDBRANCH  17  18
ENDBRANCH  16  17
ENDBRANCH  12  16
TORSDOF 3
