REMARK  Name = SANCDB_00853_minRM1.pdb
AUTHORGENERATED BY OPEN BABEL 2.3.2
REMARK  12 active torsions:
REMARK  status: ('A' for Active; 'I' for Inactive)
REMARK    1  A    between atoms: C_3  and  O_26
REMARK    2  A    between atoms: C_4  and  O_25
REMARK    3  A    between atoms: C_6  and  C_7
REMARK    4  A    between atoms: C_7  and  C_8
REMARK    5  A    between atoms: C_8  and  C_9
REMARK    6  A    between atoms: C_8  and  O_12
REMARK    7  A    between atoms: C_9  and  O_11
REMARK    8  A    between atoms: O_12  and  C_13
REMARK    9  A    between atoms: C_13  and  C_15
REMARK   10  A    between atoms: C_16  and  C_17
REMARK   11  A    between atoms: C_19  and  O_24
REMARK   12  A    between atoms: C_20  and  O_23
REMARK                            x       y       z     vdW  Elec       q    Type
REMARK                         _______ _______ _______ _____ _____    ______ ____
ROOT
ATOM      1  C   UNL     1      -1.456  -0.013   0.727  1.00  0.00    +0.000 C 
ENDROOT
BRANCH   1   2
ATOM      2  C   UNL     1      -1.710   0.940   1.892  1.00  0.00    +0.000 C 
ATOM      3  O   UNL     1      -0.967   1.828   2.281  1.00  0.00    +0.000 OA
BRANCH   2   4
ATOM      4  O   UNL     1      -2.893   0.733   2.504  1.00  0.00    +0.000 OA
ATOM      5  H   UNL     1      -2.892   1.364   3.254  1.00  0.00    +0.000 HD
ENDBRANCH   2   4
ENDBRANCH   1   2
BRANCH   1   6
ATOM      6  C   UNL     1      -2.047   0.573  -0.561  1.00  0.00    +0.000 C 
BRANCH   6  12
ATOM      7  C   UNL     1      -4.380   1.554  -0.475  1.00  0.00    +0.000 A 
ATOM      8  C   UNL     1      -5.770   1.433  -0.573  1.00  0.00    +0.000 A 
ATOM      9  C   UNL     1      -6.324   0.195  -0.871  1.00  0.00    +0.000 A 
ATOM     10  C   UNL     1      -5.503  -0.911  -1.071  1.00  0.00    +0.000 A 
ATOM     11  C   UNL     1      -4.123  -0.802  -0.975  1.00  0.00    +0.000 A 
ATOM     12  C   UNL     1      -3.546   0.440  -0.674  1.00  0.00    +0.000 A 
BRANCH  10  13
ATOM     13  O   UNL     1      -6.055  -2.125  -1.366  1.00  0.00    +0.000 OA
ATOM     14  H   UNL     1      -7.019  -1.958  -1.374  1.00  0.00    +0.000 HD
ENDBRANCH  10  13
BRANCH   9  15
ATOM     15  O   UNL     1      -7.675   0.013  -0.980  1.00  0.00    +0.000 OA
ATOM     16  H   UNL     1      -8.108   0.867  -0.810  1.00  0.00    +0.000 HD
ENDBRANCH   9  15
ENDBRANCH   6  12
ENDBRANCH   1   6
BRANCH   1  17
ATOM     17  O   UNL     1      -0.038  -0.151   0.500  1.00  0.00    +0.000 OA
BRANCH  17  18
ATOM     18  C   UNL     1       0.624  -0.830   1.466  1.00  0.00    +0.000 C 
ATOM     19  O   UNL     1       0.118  -1.348   2.450  1.00  0.00    +0.000 OA
BRANCH  18  20
ATOM     20  C   UNL     1       2.075  -0.904   1.199  1.00  0.00    +0.000 C 
ATOM     21  C   UNL     1       2.681  -0.338   0.143  1.00  0.00    +0.000 C 
BRANCH  21  22
ATOM     22  C   UNL     1       4.128  -0.409  -0.102  1.00  0.00    +0.000 A 
ATOM     23  C   UNL     1       4.770   0.699  -0.672  1.00  0.00    +0.000 A 
ATOM     24  C   UNL     1       6.132   0.643  -0.947  1.00  0.00    +0.000 A 
ATOM     25  C   UNL     1       6.871  -0.494  -0.639  1.00  0.00    +0.000 A 
ATOM     26  C   UNL     1       6.249  -1.612  -0.106  1.00  0.00    +0.000 A 
ATOM     27  C   UNL     1       4.876  -1.571   0.158  1.00  0.00    +0.000 A 
BRANCH  25  28
ATOM     28  O   UNL     1       8.221  -0.517  -0.833  1.00  0.00    +0.000 OA
ATOM     29  H   UNL     1       8.543   0.369  -0.585  1.00  0.00    +0.000 HD
ENDBRANCH  25  28
BRANCH  24  30
ATOM     30  O   UNL     1       6.726   1.712  -1.554  1.00  0.00    +0.000 OA
ATOM     31  H   UNL     1       7.393   1.340  -2.160  1.00  0.00    +0.000 HD
ENDBRANCH  24  30
ENDBRANCH  21  22
ENDBRANCH  18  20
ENDBRANCH  17  18
ENDBRANCH   1  17
TORSDOF 12
