REMARK  Name = /srv/my_project/app/compsite/backup/Dave/CORINA_stuff/newPDBs/SANC00370.pdb
AUTHORGENERATED BY OPEN BABEL 2.3.2
REMARK  21 active torsions:
REMARK  status: ('A' for Active; 'I' for Inactive)
REMARK    1  A    between atoms: C_2  and  O_3
REMARK    2  A    between atoms: O_3  and  C_4
REMARK    3  A    between atoms: C_6  and  O_8
REMARK    4  A    between atoms: C_9  and  O_11
REMARK    5  A    between atoms: O_11  and  C_12
REMARK    6  A    between atoms: C_12  and  C_13
REMARK    7  A    between atoms: C_13  and  C_14
REMARK    8  A    between atoms: C_17  and  O_18
REMARK    9  A    between atoms: C_19  and  O_20
REMARK   10  A    between atoms: C_23  and  C_25
REMARK   11  A    between atoms: C_25  and  O_26
REMARK   12  A    between atoms: C_27  and  O_29
REMARK   13  A    between atoms: O_29  and  C_30
REMARK   14  A    between atoms: C_30  and  C_32
REMARK   15  A    between atoms: C_33  and  C_34
REMARK   16  A    between atoms: C_37  and  O_38
REMARK   17  A    between atoms: C_39  and  O_40
REMARK   18  A    between atoms: C_43  and  C_45
REMARK   19  A    between atoms: C_46  and  O_48
REMARK   20  A    between atoms: C_49  and  O_51
REMARK   21  A    between atoms: C_52  and  O_54
REMARK                            x       y       z     vdW  Elec       q    Type
REMARK                         _______ _______ _______ _____ _____    ______ ____
ROOT
ATOM      1  C   UNL     1      -0.636   0.324   0.192  1.00  0.00    +0.000 C 
ATOM      2  C   UNL     1      -2.165   0.158   0.153  1.00  0.00    +0.000 C 
ATOM      3  C   UNL     1      -2.581  -0.746  -1.030  1.00  0.00    +0.000 C 
ATOM      4  O   UNL     1      -1.867  -1.979  -1.005  1.00  0.00    +0.000 OA
ATOM      5  C   UNL     1      -0.451  -1.808  -1.121  1.00  0.00    +0.000 C 
ATOM      6  C   UNL     1       0.083  -1.031   0.095  1.00  0.00    +0.000 C 
ENDROOT
BRANCH   2   7
ATOM      7  O   UNL     1      -2.818   1.440   0.058  1.00  0.00    +0.000 OA
ATOM      8  H   UNL     1      -2.195   2.092  -0.321  1.00  0.00    +0.000 HD
ENDBRANCH   2   7
BRANCH   5   9
ATOM      9  C   UNL     1       0.172  -3.204  -1.252  1.00  0.00    +0.000 C 
BRANCH   9  10
ATOM     10  O   UNL     1       1.502  -3.128  -1.755  1.00  0.00    +0.000 OA
ATOM     11  H   UNL     1       1.882  -4.021  -1.663  1.00  0.00    +0.000 HD
ENDBRANCH   9  10
ENDBRANCH   5   9
BRANCH   6  12
ATOM     12  O   UNL     1       1.490  -0.746  -0.049  1.00  0.00    +0.000 OA
BRANCH  12  13
ATOM     13  C   UNL     1       2.334  -1.516   0.680  1.00  0.00    +0.000 C 
ATOM     14  O   UNL     1       2.022  -2.442   1.413  1.00  0.00    +0.000 OA
BRANCH  13  15
ATOM     15  C   UNL     1       3.740  -1.095   0.506  1.00  0.00    +0.000 C 
ATOM     16  C   UNL     1       4.156  -0.239  -0.439  1.00  0.00    +0.000 C 
BRANCH  16  17
ATOM     17  C   UNL     1       5.560   0.161  -0.605  1.00  0.00    +0.000 A 
ATOM     18  C   UNL     1       6.377   0.471   0.496  1.00  0.00    +0.000 A 
ATOM     19  C   UNL     1       7.699   0.883   0.308  1.00  0.00    +0.000 A 
ATOM     20  C   UNL     1       8.197   0.992  -0.980  1.00  0.00    +0.000 A 
ATOM     21  C   UNL     1       7.396   0.699  -2.080  1.00  0.00    +0.000 A 
ATOM     22  C   UNL     1       6.077   0.291  -1.903  1.00  0.00    +0.000 A 
BRANCH  21  23
ATOM     23  O   UNL     1       7.952   0.830  -3.323  1.00  0.00    +0.000 OA
ATOM     24  H   UNL     1       7.288   0.568  -3.983  1.00  0.00    +0.000 HD
ENDBRANCH  21  23
BRANCH  20  25
ATOM     25  O   UNL     1       9.488   1.394  -1.164  1.00  0.00    +0.000 OA
ATOM     26  H   UNL     1       9.610   1.396  -2.134  1.00  0.00    +0.000 HD
ENDBRANCH  20  25
ENDBRANCH  16  17
ENDBRANCH  13  15
ENDBRANCH  12  13
ENDBRANCH   6  12
BRANCH   3  27
ATOM     27  O   UNL     1      -3.986  -1.001  -0.928  1.00  0.00    +0.000 OA
BRANCH  27  28
ATOM     28  C   UNL     1      -4.510  -1.764  -2.017  1.00  0.00    +0.000 C 
BRANCH  28  29
ATOM     29  C   UNL     1      -4.703  -3.234  -1.626  1.00  0.00    +0.000 C 
BRANCH  29  30
ATOM     30  C   UNL     1      -5.931  -3.467  -0.772  1.00  0.00    +0.000 A 
ATOM     31  C   UNL     1      -7.022  -4.194  -1.280  1.00  0.00    +0.000 A 
ATOM     32  C   UNL     1      -8.158  -4.415  -0.496  1.00  0.00    +0.000 A 
ATOM     33  C   UNL     1      -8.200  -3.908   0.793  1.00  0.00    +0.000 A 
ATOM     34  C   UNL     1      -7.129  -3.185   1.309  1.00  0.00    +0.000 A 
ATOM     35  C   UNL     1      -5.992  -2.965   0.538  1.00  0.00    +0.000 A 
BRANCH  33  36
ATOM     36  O   UNL     1      -9.311  -4.121   1.559  1.00  0.00    +0.000 OA
ATOM     37  H   UNL     1      -9.105  -3.676   2.406  1.00  0.00    +0.000 HD
ENDBRANCH  33  36
BRANCH  34  38
ATOM     38  O   UNL     1      -7.238  -2.705   2.585  1.00  0.00    +0.000 OA
ATOM     39  H   UNL     1      -6.439  -2.181   2.770  1.00  0.00    +0.000 HD
ENDBRANCH  34  38
ENDBRANCH  29  30
ENDBRANCH  28  29
ENDBRANCH  27  28
ENDBRANCH   3  27
BRANCH   1  40
ATOM     40  O   UNL     1      -0.261   0.941   1.440  1.00  0.00    +0.000 OA
BRANCH  40  41
ATOM     41  C   UNL     1       0.487   2.150   1.290  1.00  0.00    +0.000 C 
ATOM     42  O   UNL     1       1.309   2.337   2.439  1.00  0.00    +0.000 OA
ATOM     43  C   UNL     1       2.220   3.443   2.318  1.00  0.00    +0.000 C 
ATOM     44  C   UNL     1       3.557   2.953   1.772  1.00  0.00    +0.000 C 
ATOM     45  C   UNL     1       1.654   4.608   1.479  1.00  0.00    +0.000 C 
ATOM     46  C   UNL     1       0.134   4.646   1.646  1.00  0.00    +0.000 C 
ATOM     47  C   UNL     1      -0.489   3.340   1.139  1.00  0.00    +0.000 C 
BRANCH  47  48
ATOM     48  O   UNL     1      -0.881   3.468  -0.249  1.00  0.00    +0.000 OA
ATOM     49  H   UNL     1      -0.946   4.435  -0.409  1.00  0.00    +0.000 HD
ENDBRANCH  47  48
BRANCH  46  50
ATOM     50  O   UNL     1      -0.410   5.760   0.915  1.00  0.00    +0.000 OA
ATOM     51  H   UNL     1      -1.251   5.997   1.352  1.00  0.00    +0.000 HD
ENDBRANCH  46  50
BRANCH  45  52
ATOM     52  O   UNL     1       2.224   5.850   1.893  1.00  0.00    +0.000 OA
ATOM     53  H   UNL     1       1.696   6.544   1.451  1.00  0.00    +0.000 HD
ENDBRANCH  45  52
ENDBRANCH  40  41
ENDBRANCH   1  40
TORSDOF 20
