REMARK  Name = SANCDB_01053_minRM1.pdb
AUTHORGENERATED BY OPEN BABEL 2.3.2
REMARK  14 active torsions:
REMARK  status: ('A' for Active; 'I' for Inactive)
REMARK    1  A    between atoms: C_1  and  C_2
REMARK    2  A    between atoms: C_2  and  C_3
REMARK    3  A    between atoms: C_3  and  C_4
REMARK    4  A    between atoms: C_4  and  C_5
REMARK    5  A    between atoms: C_5  and  C_6
REMARK    6  A    between atoms: C_6  and  C_7
REMARK    7  A    between atoms: C_7  and  C_8
REMARK    8  A    between atoms: C_8  and  C_9
REMARK    9  A    between atoms: C_9  and  C_10
REMARK   10  A    between atoms: C_10  and  C_11
REMARK   11  A    between atoms: C_11  and  C_12
REMARK   12  A    between atoms: C_12  and  C_13
REMARK   13  A    between atoms: C_13  and  C_14
REMARK   14  A    between atoms: C_14  and  O_16
REMARK                            x       y       z     vdW  Elec       q    Type
REMARK                         _______ _______ _______ _____ _____    ______ ____
ROOT
ATOM      1  C   UNL     1       1.286  -0.303  -0.737  1.00  0.00    +0.000 C 
ENDROOT
BRANCH   1   2
ATOM      2  C   UNL     1       0.362   0.435   0.235  1.00  0.00    +0.000 C 
BRANCH   2   3
ATOM      3  C   UNL     1      -0.985   0.756  -0.417  1.00  0.00    +0.000 C 
BRANCH   3   4
ATOM      4  C   UNL     1      -1.910   1.492   0.554  1.00  0.00    +0.000 C 
BRANCH   4   5
ATOM      5  C   UNL     1      -3.231   1.940  -0.080  1.00  0.00    +0.000 C 
BRANCH   5   6
ATOM      6  C   UNL     1      -4.106   0.821  -0.655  1.00  0.00    +0.000 C 
BRANCH   6   7
ATOM      7  C   UNL     1      -4.517  -0.223   0.386  1.00  0.00    +0.000 C 
BRANCH   7   9
ATOM      8  C   UNL     1      -5.024  -2.109  -1.256  1.00  0.00    +0.000 C 
ATOM      9  C   UNL     1      -5.551  -1.222  -0.138  1.00  0.00    +0.000 C 
ENDBRANCH   7   9
ENDBRANCH   6   7
ENDBRANCH   5   6
ENDBRANCH   4   5
ENDBRANCH   3   4
ENDBRANCH   2   3
ENDBRANCH   1   2
BRANCH   1  10
ATOM     10  C   UNL     1       2.604  -0.757  -0.102  1.00  0.00    +0.000 C 
BRANCH  10  11
ATOM     11  C   UNL     1       3.522   0.404   0.287  1.00  0.00    +0.000 C 
BRANCH  11  12
ATOM     12  C   UNL     1       4.840  -0.048   0.931  1.00  0.00    +0.000 C 
BRANCH  12  13
ATOM     13  C   UNL     1       5.750  -0.876   0.030  1.00  0.00    +0.000 C 
BRANCH  13  14
ATOM     14  C   UNL     1       6.186  -0.127  -1.197  1.00  0.00    +0.000 C 
ATOM     15  O   UNL     1       5.850  -0.366  -2.345  1.00  0.00    +0.000 OA
BRANCH  14  16
ATOM     16  O   UNL     1       7.027   0.887  -0.922  1.00  0.00    +0.000 OA
ATOM     17  H   UNL     1       7.224   1.276  -1.800  1.00  0.00    +0.000 HD
ENDBRANCH  14  16
ENDBRANCH  13  14
ENDBRANCH  12  13
ENDBRANCH  11  12
ENDBRANCH  10  11
ENDBRANCH   1  10
TORSDOF 13
