REMARK  Name = SANCDB_00738_minRM1.pdb
AUTHORGENERATED BY OPEN BABEL 2.3.2
REMARK  17 active torsions:
REMARK  status: ('A' for Active; 'I' for Inactive)
REMARK    1  A    between atoms: C_1  and  C_2
REMARK    2  A    between atoms: C_2  and  C_3
REMARK    3  A    between atoms: C_4  and  C_5
REMARK    4  A    between atoms: C_5  and  C_6
REMARK    5  A    between atoms: C_6  and  C_7
REMARK    6  A    between atoms: C_7  and  C_8
REMARK    7  A    between atoms: C_9  and  C_10
REMARK    8  A    between atoms: C_10  and  C_11
REMARK    9  A    between atoms: C_11  and  C_12
REMARK   10  A    between atoms: C_12  and  C_13
REMARK   11  A    between atoms: C_14  and  C_15
REMARK   12  A    between atoms: C_15  and  C_16
REMARK   13  A    between atoms: C_16  and  C_17
REMARK   14  A    between atoms: C_17  and  C_18
REMARK   15  A    between atoms: C_19  and  C_20
REMARK   16  A    between atoms: C_20  and  C_21
REMARK   17  A    between atoms: C_21  and  C_22
REMARK                            x       y       z     vdW  Elec       q    Type
REMARK                         _______ _______ _______ _____ _____    ______ ____
ROOT
ATOM      1  C   UNL     1       1.259  -2.935   0.940  1.00  0.00    +0.000 C 
ATOM      2  C   UNL     1       1.710  -3.896  -0.146  1.00  0.00    +0.000 C 
ATOM      3  C   UNL     1       2.016  -2.841   2.052  1.00  0.00    +0.000 C 
ENDROOT
BRANCH   1   4
ATOM      4  C   UNL     1      -0.021  -2.215   0.541  1.00  0.00    +0.000 C 
BRANCH   4   5
ATOM      5  C   UNL     1      -0.630  -1.144   1.447  1.00  0.00    +0.000 C 
BRANCH   5   8
ATOM      6  C   UNL     1      -1.979   0.766   0.379  1.00  0.00    +0.000 C 
ATOM      7  C   UNL     1      -0.915   1.830   0.450  1.00  0.00    +0.000 C 
ATOM      8  C   UNL     1      -1.836  -0.505   0.806  1.00  0.00    +0.000 C 
BRANCH   6   9
ATOM      9  C   UNL     1      -3.305   1.226  -0.205  1.00  0.00    +0.000 C 
BRANCH   9  10
ATOM     10  C   UNL     1      -3.274   1.323  -1.734  1.00  0.00    +0.000 C 
BRANCH  10  14
ATOM     11  C   UNL     1      -6.809   1.597  -3.416  1.00  0.00    +0.000 C 
ATOM     12  C   UNL     1      -5.535   0.989  -2.890  1.00  0.00    +0.000 C 
ATOM     13  C   UNL     1      -5.427  -0.497  -3.096  1.00  0.00    +0.000 C 
ATOM     14  C   UNL     1      -4.607   1.755  -2.284  1.00  0.00    +0.000 C 
ENDBRANCH  10  14
ENDBRANCH   9  10
ENDBRANCH   6   9
ENDBRANCH   5   8
ENDBRANCH   4   5
ENDBRANCH   1   4
BRANCH   3  15
ATOM     15  C   UNL     1       1.869  -2.047   3.322  1.00  0.00    +0.000 C 
BRANCH  15  16
ATOM     16  C   UNL     1       2.983  -1.006   3.521  1.00  0.00    +0.000 C 
BRANCH  16  17
ATOM     17  C   UNL     1       2.737   0.315   2.820  1.00  0.00    +0.000 C 
ATOM     18  C   UNL     1       1.820   1.261   3.558  1.00  0.00    +0.000 C 
ATOM     19  C   UNL     1       3.292   0.693   1.651  1.00  0.00    +0.000 C 
BRANCH  19  20
ATOM     20  C   UNL     1       4.239  -0.084   0.772  1.00  0.00    +0.000 C 
BRANCH  20  21
ATOM     21  C   UNL     1       3.680  -0.356  -0.631  1.00  0.00    +0.000 C 
BRANCH  21  22
ATOM     22  C   UNL     1       3.493   0.867  -1.467  1.00  0.00    +0.000 A 
ATOM     23  C   UNL     1       4.498   1.727  -1.994  1.00  0.00    +0.000 A 
ATOM     24  C   UNL     1       3.842   2.710  -2.696  1.00  0.00    +0.000 A 
ATOM     25  O   UNL     1       2.500   2.513  -2.646  1.00  0.00    +0.000 OA
ATOM     26  C   UNL     1       2.295   1.395  -1.906  1.00  0.00    +0.000 A 
ENDBRANCH  21  22
ENDBRANCH  20  21
ENDBRANCH  19  20
ENDBRANCH  16  17
ENDBRANCH  15  16
ENDBRANCH   3  15
TORSDOF 12
