REMARK  Name = SANCDB_01122_minRM1.pdb
AUTHORGENERATED BY OPEN BABEL 2.3.2
REMARK  5 active torsions:
REMARK  status: ('A' for Active; 'I' for Inactive)
REMARK    1  A    between atoms: C_1  and  C_2
REMARK    2  A    between atoms: C_2  and  C_4
REMARK    3  A    between atoms: C_6  and  O_11
REMARK    4  A    between atoms: C_7  and  O_10
REMARK    5  A    between atoms: O_11  and  C_12
REMARK                            x       y       z     vdW  Elec       q    Type
REMARK                         _______ _______ _______ _____ _____    ______ ____
ROOT
ATOM      1  C   UNL     1      -0.945   0.258   0.052  1.00  0.00    +0.000 A 
ATOM      2  C   UNL     1       0.436   0.525   0.090  1.00  0.00    +0.000 A 
ATOM      3  C   UNL     1       1.357  -0.488  -0.171  1.00  0.00    +0.000 A 
ATOM      4  C   UNL     1       0.881  -1.769  -0.469  1.00  0.00    +0.000 A 
ATOM      5  C   UNL     1      -0.479  -2.051  -0.511  1.00  0.00    +0.000 A 
ATOM      6  C   UNL     1      -1.398  -1.034  -0.249  1.00  0.00    +0.000 A 
ENDROOT
BRANCH   1   8
ATOM      7  C   UNL     1      -3.372   1.117   0.305  1.00  0.00    +0.000 C 
ATOM      8  C   UNL     1      -1.889   1.380   0.340  1.00  0.00    +0.000 C 
ATOM      9  O   UNL     1      -1.447   2.497   0.600  1.00  0.00    +0.000 OA
ENDBRANCH   1   8
BRANCH   4  10
ATOM     10  O   UNL     1       1.757  -2.787  -0.731  1.00  0.00    +0.000 OA
ATOM     11  H   UNL     1       2.644  -2.384  -0.651  1.00  0.00    +0.000 HD
ENDBRANCH   4  10
BRANCH   3  12
ATOM     12  O   UNL     1       2.722  -0.364  -0.167  1.00  0.00    +0.000 OA
ATOM     13  C   UNL     1       3.243   0.926   0.133  1.00  0.00    +0.000 C 
ENDBRANCH   3  12
TORSDOF 3
