REMARK  Name = /srv/my_project/app/compsite/backup/Dave/CORINA_stuff/newPDBs/SANC00197.pdb
AUTHORGENERATED BY OPEN BABEL 2.3.2
REMARK  5 active torsions:
REMARK  status: ('A' for Active; 'I' for Inactive)
REMARK    1  A    between atoms: C_4  and  C_5
REMARK    2  A    between atoms: C_11  and  O_12
REMARK    3  A    between atoms: C_13  and  C_14
REMARK    4  A    between atoms: C_17  and  C_19
REMARK    5  A    between atoms: C_20  and  C_21
REMARK                            x       y       z     vdW  Elec       q    Type
REMARK                         _______ _______ _______ _____ _____    ______ ____
ROOT
ATOM      1  C   UNL     1       0.883   0.900  -0.073  1.00  0.00    +0.000 C 
ATOM      2  C   UNL     1       2.282   0.949   0.557  1.00  0.00    +0.000 C 
ATOM      3  C   UNL     1       3.322   0.052  -0.128  1.00  0.00    +0.000 C 
ATOM      4  C   UNL     1       4.683   0.245   0.560  1.00  0.00    +0.000 C 
ATOM      5 CL   UNL     1       3.574   0.677  -1.822  1.00  0.00    +0.000 Cl
ATOM      6  C   UNL     1       2.800  -1.413  -0.213  1.00  0.00    +0.000 C 
ATOM      7 BR   UNL     1       3.667  -2.654   1.063  1.00  0.00    +0.000 Br
ATOM      8  C   UNL     1       1.281  -1.573   0.027  1.00  0.00    +0.000 C 
ATOM      9  C   UNL     1       0.462  -0.464  -0.641  1.00  0.00    +0.000 C 
ATOM     10  C   UNL     1      -1.063  -0.470  -0.390  1.00  0.00    +0.000 C 
ATOM     11  C   UNL     1      -1.656  -1.883  -0.244  1.00  0.00    +0.000 C 
ATOM     12  C   UNL     1      -1.849   0.263  -1.512  1.00  0.00    +0.000 C 
ATOM     13  C   UNL     1      -3.028   0.892  -0.792  1.00  0.00    +0.000 C 
ATOM     14  C   UNL     1      -2.385   1.469   0.465  1.00  0.00    +0.000 C 
ATOM     15  C   UNL     1      -3.429   1.782   1.530  1.00  0.00    +0.000 C 
ATOM     16  C   UNL     1      -1.259   0.459   0.844  1.00  0.00    +0.000 C 
ATOM     17  C   UNL     1      -1.459  -0.250   2.183  1.00  0.00    +0.000 C 
ATOM     18  O   UNL     1      -0.043   1.229   0.980  1.00  0.00    +0.000 OA
ENDROOT
BRANCH   9  19
ATOM     19  O   UNL     1       0.727  -0.554  -2.041  1.00  0.00    +0.000 OA
ATOM     20  H   UNL     1       0.291  -1.351  -2.391  1.00  0.00    +0.000 HD
ENDBRANCH   9  19
TORSDOF 1
