REMARK  Name = /srv/my_project/app/compsite/backup/Dave/CORINA_stuff/newPDBs/SANC00149.pdb
AUTHORGENERATED BY OPEN BABEL 2.3.2
REMARK  12 active torsions:
REMARK  status: ('A' for Active; 'I' for Inactive)
REMARK    1  A    between atoms: C_5  and  C_6
REMARK    2  A    between atoms: C_14  and  O_16
REMARK    3  A    between atoms: O_16  and  C_17
REMARK    4  A    between atoms: C_17  and  C_18
REMARK    5  A    between atoms: C_22  and  C_23
REMARK    6  A    between atoms: C_23  and  C_24
REMARK    7  A    between atoms: C_23  and  O_29
REMARK    8  A    between atoms: C_24  and  C_25
REMARK    9  A    between atoms: C_26  and  C_27
REMARK   10  A    between atoms: C_26  and  C_28
REMARK   11  A    between atoms: O_29  and  C_30
REMARK   12  A    between atoms: C_30  and  C_31
REMARK                            x       y       z     vdW  Elec       q    Type
REMARK                         _______ _______ _______ _____ _____    ______ ____
ROOT
ATOM      1  C   UNL     1      -0.606  -0.229   0.119  1.00  0.00    +0.000 C 
ATOM      2  C   UNL     1      -0.414  -1.095   1.390  1.00  0.00    +0.000 C 
ATOM      3  C   UNL     1      -1.694  -1.748   1.952  1.00  0.00    +0.000 C 
ATOM      4  C   UNL     1      -2.565  -2.410   0.902  1.00  0.00    +0.000 C 
ATOM      5  C   UNL     1      -2.063  -3.743   0.409  1.00  0.00    +0.000 C 
ATOM      6  C   UNL     1      -3.698  -1.878   0.397  1.00  0.00    +0.000 C 
ATOM      7  C   UNL     1      -4.350  -0.575   0.778  1.00  0.00    +0.000 C 
ATOM      8  C   UNL     1      -4.171   0.569  -0.239  1.00  0.00    +0.000 C 
ATOM      9  C   UNL     1      -2.757   0.890  -0.706  1.00  0.00    +0.000 C 
ATOM     10  C   UNL     1      -2.526   1.135  -2.009  1.00  0.00    +0.000 C 
ATOM     11  C   UNL     1      -1.644   0.915   0.356  1.00  0.00    +0.000 C 
ATOM     12  C   UNL     1      -0.933   2.273   0.571  1.00  0.00    +0.000 C 
ATOM     13  O   UNL     1      -0.006   2.600  -0.464  1.00  0.00    +0.000 OA
ATOM     14  C   UNL     1       0.873   1.594  -0.744  1.00  0.00    +0.000 C 
ATOM     15  C   UNL     1       0.710   0.288  -0.468  1.00  0.00    +0.000 C 
ENDROOT
BRANCH  12  16
ATOM     16  O   UNL     1      -1.931   3.302   0.696  1.00  0.00    +0.000 OA
BRANCH  16  17
ATOM     17  C   UNL     1      -1.553   4.388   1.414  1.00  0.00    +0.000 C 
ATOM     18  C   UNL     1      -2.638   5.421   1.379  1.00  0.00    +0.000 C 
ATOM     19  O   UNL     1      -0.501   4.519   2.023  1.00  0.00    +0.000 OA
ENDBRANCH  16  17
ENDBRANCH  12  16
BRANCH  15  20
ATOM     20  C   UNL     1       1.795  -0.694  -0.914  1.00  0.00    +0.000 C 
BRANCH  20  21
ATOM     21  C   UNL     1       2.862  -0.985   0.167  1.00  0.00    +0.000 C 
BRANCH  21  22
ATOM     22  C   UNL     1       3.680   0.217   0.563  1.00  0.00    +0.000 C 
ATOM     23  C   UNL     1       4.888   0.575   0.084  1.00  0.00    +0.000 C 
ATOM     24  C   UNL     1       5.589   1.802   0.606  1.00  0.00    +0.000 C 
ATOM     25  C   UNL     1       5.640  -0.161  -0.991  1.00  0.00    +0.000 C 
ENDBRANCH  21  22
ENDBRANCH  20  21
BRANCH  20  26
ATOM     26  O   UNL     1       1.153  -1.923  -1.314  1.00  0.00    +0.000 OA
BRANCH  26  27
ATOM     27  C   UNL     1       1.805  -2.670  -2.243  1.00  0.00    +0.000 C 
ATOM     28  C   UNL     1       1.002  -3.891  -2.567  1.00  0.00    +0.000 C 
ATOM     29  O   UNL     1       2.891  -2.407  -2.738  1.00  0.00    +0.000 OA
ENDBRANCH  26  27
ENDBRANCH  20  26
ENDBRANCH  15  20
TORSDOF 7
