REMARK  Name = /srv/my_project/app/compsite/backup/Dave/CORINA_stuff/newPDBs/SANC00472.pdb
AUTHORGENERATED BY OPEN BABEL 2.3.2
REMARK  9 active torsions:
REMARK  status: ('A' for Active; 'I' for Inactive)
REMARK    1  A    between atoms: C_1  and  O_2
REMARK    2  A    between atoms: O_2  and  C_3
REMARK    3  A    between atoms: C_4  and  O_5
REMARK    4  A    between atoms: C_10  and  C_11
REMARK    5  A    between atoms: C_13  and  O_14
REMARK    6  A    between atoms: C_19  and  O_20
REMARK    7  A    between atoms: O_20  and  C_21
REMARK    8  A    between atoms: C_22  and  O_23
REMARK    9  A    between atoms: O_23  and  C_24
REMARK                            x       y       z     vdW  Elec       q    Type
REMARK                         _______ _______ _______ _____ _____    ______ ____
ROOT
ATOM      1  C   UNL     1      -2.619  -0.527  -0.631  1.00  0.00    +0.000 A 
ATOM      2  C   UNL     1      -1.371  -0.883  -1.163  1.00  0.00    +0.000 A 
ATOM      3  C   UNL     1      -0.188  -0.373  -0.592  1.00  0.00    +0.000 A 
ATOM      4  C   UNL     1       1.137  -0.723  -1.130  1.00  0.00    +0.000 A 
ATOM      5  O   UNL     1       1.203  -1.476  -2.096  1.00  0.00    +0.000 OA
ATOM      6  C   UNL     1       2.333  -0.148  -0.476  1.00  0.00    +0.000 A 
ATOM      7  C   UNL     1       3.653  -0.414  -0.904  1.00  0.00    +0.000 A 
ATOM      8  C   UNL     1       3.969  -1.310  -2.071  1.00  0.00    +0.000 C 
ATOM      9  C   UNL     1       4.723   0.183  -0.212  1.00  0.00    +0.000 A 
ATOM     10  C   UNL     1       4.478   1.020   0.873  1.00  0.00    +0.000 A 
ATOM     11  C   UNL     1       3.182   1.279   1.290  1.00  0.00    +0.000 A 
ATOM     12  C   UNL     1       2.108   0.696   0.616  1.00  0.00    +0.000 A 
ATOM     13  O   UNL     1       0.868   1.016   1.107  1.00  0.00    +0.000 OA
ATOM     14  C   UNL     1      -0.243   0.487   0.500  1.00  0.00    +0.000 A 
ATOM     15  C   UNL     1      -1.487   0.846   1.031  1.00  0.00    +0.000 A 
ATOM     16  C   UNL     1      -2.668   0.373   0.444  1.00  0.00    +0.000 A 
ENDROOT
BRANCH   1  18
ATOM     17  C   UNL     1      -3.909  -2.333  -1.426  1.00  0.00    +0.000 C 
ATOM     18  O   UNL     1      -3.829  -0.942  -1.131  1.00  0.00    +0.000 OA
ENDBRANCH   1  18
BRANCH   2  19
ATOM     19  O   UNL     1      -1.328  -1.707  -2.261  1.00  0.00    +0.000 OA
ATOM     20  H   UNL     1      -0.387  -1.837  -2.518  1.00  0.00    +0.000 HD
ENDBRANCH   2  19
BRANCH  10  21
ATOM     21  O   UNL     1       5.496   1.610   1.560  1.00  0.00    +0.000 OA
ATOM     22  H   UNL     1       6.343   1.351   1.159  1.00  0.00    +0.000 HD
ENDBRANCH  10  21
BRANCH  15  23
ATOM     23  O   UNL     1      -1.533   1.731   2.081  1.00  0.00    +0.000 OA
ATOM     24  C   UNL     1      -1.743   1.031   3.308  1.00  0.00    +0.000 C 
ENDBRANCH  15  23
BRANCH  16  25
ATOM     25  O   UNL     1      -3.881   0.739   0.981  1.00  0.00    +0.000 OA
ATOM     26  C   UNL     1      -4.377   1.896   0.307  1.00  0.00    +0.000 C 
ENDBRANCH  16  25
TORSDOF 5
