REMARK  Name = /srv/my_project/app/compsite/backup/Dave/CORINA_stuff/newPDBs/SANC00686.pdb
AUTHORGENERATED BY OPEN BABEL 2.3.2
REMARK  26 active torsions:
REMARK  status: ('A' for Active; 'I' for Inactive)
REMARK    1  A    between atoms: C_2  and  O_3
REMARK    2  A    between atoms: O_3  and  C_4
REMARK    3  A    between atoms: C_8  and  O_10
REMARK    4  A    between atoms: O_10  and  C_11
REMARK    5  A    between atoms: C_14  and  O_16
REMARK    6  A    between atoms: C_27  and  C_28
REMARK    7  A    between atoms: C_39  and  C_41
REMARK    8  A    between atoms: C_42  and  O_44
REMARK    9  A    between atoms: O_44  and  C_45
REMARK   10  A    between atoms: C_48  and  C_50
REMARK   11  A    between atoms: C_51  and  O_53
REMARK   12  A    between atoms: C_54  and  O_56
REMARK   13  A    between atoms: C_57  and  O_59
REMARK   14  A    between atoms: C_60  and  O_62
REMARK   15  A    between atoms: C_63  and  C_65
REMARK   16  A    between atoms: C_68  and  C_69
REMARK   17  A    between atoms: C_70  and  O_72
REMARK   18  A    between atoms: O_72  and  C_73
REMARK   19  A    between atoms: C_76  and  C_78
REMARK   20  A    between atoms: C_79  and  O_81
REMARK   21  A    between atoms: C_82  and  O_84
REMARK   22  A    between atoms: C_85  and  O_87
REMARK   23  A    between atoms: C_88  and  O_90
REMARK   24  A    between atoms: C_93  and  O_95
REMARK   25  A    between atoms: C_96  and  O_98
REMARK   26  A    between atoms: C_99  and  O_101
REMARK                            x       y       z     vdW  Elec       q    Type
REMARK                         _______ _______ _______ _____ _____    ______ ____
ROOT
ATOM      1  C   UNL     1       3.791   0.527   2.142  1.00  0.00    +0.000 C 
ATOM      2  C   UNL     1       4.987   0.281   3.080  1.00  0.00    +0.000 C 
ATOM      3  C   UNL     1       4.874   1.095   4.363  1.00  0.00    +0.000 C 
ATOM      4  C   UNL     1       3.564   0.805   5.091  1.00  0.00    +0.000 C 
ATOM      5  C   UNL     1       2.374   0.966   4.170  1.00  0.00    +0.000 C 
ATOM      6  C   UNL     1       1.378   1.794   4.525  1.00  0.00    +0.000 C 
ATOM      7  C   UNL     1       0.141   2.025   3.725  1.00  0.00    +0.000 C 
ATOM      8  C   UNL     1      -0.111   0.918   2.694  1.00  0.00    +0.000 C 
ATOM      9  C   UNL     1       1.199   0.621   1.887  1.00  0.00    +0.000 C 
ATOM     10  C   UNL     1       0.909  -0.355   0.709  1.00  0.00    +0.000 C 
ATOM     11  C   UNL     1      -0.270   0.072  -0.184  1.00  0.00    +0.000 C 
ATOM     12  C   UNL     1      -1.542   0.280   0.644  1.00  0.00    +0.000 C 
ATOM     13  C   UNL     1      -1.990  -1.076   1.261  1.00  0.00    +0.000 C 
ATOM     14  C   UNL     1      -1.214   1.338   1.723  1.00  0.00    +0.000 C 
ATOM     15  C   UNL     1      -2.620   1.646   2.186  1.00  0.00    +0.000 C 
ATOM     16  O   UNL     1      -2.954   1.900   3.334  1.00  0.00    +0.000 OA
ATOM     17  C   UNL     1      -3.560   1.632   0.976  1.00  0.00    +0.000 C 
ATOM     18  O   UNL     1      -4.751   0.874   1.036  1.00  0.00    +0.000 OA
ATOM     19  C   UNL     1      -5.058   0.513  -0.331  1.00  0.00    +0.000 C 
ATOM     20  O   UNL     1      -5.605   1.635  -1.021  1.00  0.00    +0.000 OA
ATOM     21  C   UNL     1      -6.750   2.192  -0.365  1.00  0.00    +0.000 C 
ATOM     22  C   UNL     1      -7.807   1.152   0.035  1.00  0.00    +0.000 C 
ATOM     23  C   UNL     1      -8.000   1.089   1.554  1.00  0.00    +0.000 C 
ATOM     24  C   UNL     1      -7.499  -0.204  -0.611  1.00  0.00    +0.000 C 
ATOM     25  C   UNL     1      -6.049  -0.678  -0.358  1.00  0.00    +0.000 C 
ATOM     26  C   UNL     1      -3.683   0.128  -0.919  1.00  0.00    +0.000 C 
ATOM     27  C   UNL     1      -3.558   0.328  -2.426  1.00  0.00    +0.000 C 
ATOM     28  C   UNL     1      -2.696   0.995  -0.131  1.00  0.00    +0.000 C 
ATOM     29  C   UNL     1       2.406   0.188   2.835  1.00  0.00    +0.000 C 
ATOM     30  C   UNL     1       2.308  -1.325   3.154  1.00  0.00    +0.000 C 
ENDROOT
BRANCH  25  31
ATOM     31  O   UNL     1      -5.916  -1.476   0.830  1.00  0.00    +0.000 OA
ATOM     32  H   UNL     1      -5.746  -0.847   1.559  1.00  0.00    +0.000 HD
ENDBRANCH  25  31
BRANCH   3  33
ATOM     33  O   UNL     1       5.984   0.805   5.211  1.00  0.00    +0.000 OA
ATOM     34  H   UNL     1       5.966  -0.143   5.425  1.00  0.00    +0.000 HD
ENDBRANCH   3  33
BRANCH  24  35
ATOM     35  O   UNL     1      -8.414  -1.218  -0.181  1.00  0.00    +0.000 OA
BRANCH  35  36
ATOM     36  C   UNL     1      -9.514  -1.432  -1.071  1.00  0.00    +0.000 C 
ATOM     37  O   UNL     1     -10.348  -0.280  -1.129  1.00  0.00    +0.000 OA
ATOM     38  C   UNL     1     -11.667  -0.485  -1.657  1.00  0.00    +0.000 C 
ATOM     39  C   UNL     1     -12.671  -0.221  -0.535  1.00  0.00    +0.000 C 
ATOM     40  C   UNL     1     -11.853  -1.848  -2.337  1.00  0.00    +0.000 C 
ATOM     41  C   UNL     1     -11.472  -3.002  -1.402  1.00  0.00    +0.000 C 
ATOM     42  C   UNL     1     -10.265  -2.660  -0.524  1.00  0.00    +0.000 C 
BRANCH  42  43
ATOM     43  O   UNL     1      -9.403  -3.809  -0.419  1.00  0.00    +0.000 OA
ATOM     44  H   UNL     1      -8.610  -3.486   0.060  1.00  0.00    +0.000 HD
ENDBRANCH  42  43
BRANCH  41  45
ATOM     45  O   UNL     1     -11.208  -4.160  -2.216  1.00  0.00    +0.000 OA
ATOM     46  H   UNL     1     -10.514  -4.656  -1.726  1.00  0.00    +0.000 HD
ENDBRANCH  41  45
BRANCH  40  47
ATOM     47  O   UNL     1     -13.186  -2.029  -2.817  1.00  0.00    +0.000 OA
ATOM     48  H   UNL     1     -13.211  -2.933  -3.188  1.00  0.00    +0.000 HD
ENDBRANCH  40  47
ENDBRANCH  35  36
ENDBRANCH  24  35
BRANCH   1  49
ATOM     49  O   UNL     1       4.007  -0.269   0.964  1.00  0.00    +0.000 OA
BRANCH  49  53
ATOM     50  C   UNL     1       5.963  -1.263  -1.832  1.00  0.00    +0.000 C 
ATOM     51  C   UNL     1       4.459  -1.437  -1.610  1.00  0.00    +0.000 C 
ATOM     52  O   UNL     1       3.818  -0.186  -1.375  1.00  0.00    +0.000 OA
ATOM     53  C   UNL     1       4.306   0.504  -0.211  1.00  0.00    +0.000 C 
ATOM     54  C   UNL     1       5.823   0.799  -0.346  1.00  0.00    +0.000 C 
ATOM     55  C   UNL     1       6.579  -0.508  -0.635  1.00  0.00    +0.000 C 
BRANCH  55  56
ATOM     56  O   UNL     1       6.620  -1.334   0.542  1.00  0.00    +0.000 OA
ATOM     57  H   UNL     1       5.701  -1.489   0.834  1.00  0.00    +0.000 HD
ENDBRANCH  55  56
BRANCH  54  58
ATOM     58  O   UNL     1       6.067   1.727  -1.421  1.00  0.00    +0.000 OA
BRANCH  58  59
ATOM     59  C   UNL     1       6.195   3.080  -0.941  1.00  0.00    +0.000 C 
ATOM     60  O   UNL     1       5.072   3.445  -0.148  1.00  0.00    +0.000 OA
ATOM     61  C   UNL     1       5.109   4.796   0.341  1.00  0.00    +0.000 C 
ATOM     62  C   UNL     1       6.122   4.930   1.477  1.00  0.00    +0.000 C 
ATOM     63  C   UNL     1       5.294   5.831  -0.791  1.00  0.00    +0.000 C 
ATOM     64  C   UNL     1       6.414   5.451  -1.764  1.00  0.00    +0.000 C 
ATOM     65  C   UNL     1       6.314   3.983  -2.180  1.00  0.00    +0.000 C 
BRANCH  65  66
ATOM     66  O   UNL     1       7.481   3.641  -2.950  1.00  0.00    +0.000 OA
ATOM     67  H   UNL     1       7.400   2.680  -3.118  1.00  0.00    +0.000 HD
ENDBRANCH  65  66
BRANCH  64  68
ATOM     68  O   UNL     1       7.697   5.702  -1.178  1.00  0.00    +0.000 OA
ATOM     69  H   UNL     1       8.342   5.312  -1.806  1.00  0.00    +0.000 HD
ENDBRANCH  64  68
BRANCH  63  70
ATOM     70  O   UNL     1       4.061   5.915  -1.525  1.00  0.00    +0.000 OA
ATOM     71  H   UNL     1       4.106   6.714  -2.080  1.00  0.00    +0.000 HD
ENDBRANCH  63  70
ENDBRANCH  58  59
ENDBRANCH  54  58
BRANCH  50  72
ATOM     72  O   UNL     1       6.673  -2.498  -1.998  1.00  0.00    +0.000 OA
BRANCH  72  73
ATOM     73  C   UNL     1       6.322  -3.231  -3.168  1.00  0.00    +0.000 C 
ATOM     74  O   UNL     1       5.199  -4.079  -2.926  1.00  0.00    +0.000 OA
ATOM     75  C   UNL     1       5.395  -4.971  -1.815  1.00  0.00    +0.000 C 
ATOM     76  C   UNL     1       6.812  -5.548  -1.723  1.00  0.00    +0.000 C 
ATOM     77  C   UNL     1       7.456  -5.517  -3.103  1.00  0.00    +0.000 C 
ATOM     78  C   UNL     1       7.531  -4.080  -3.638  1.00  0.00    +0.000 C 
BRANCH  78  79
ATOM     79  O   UNL     1       7.593  -4.163  -5.077  1.00  0.00    +0.000 OA
ATOM     80  H   UNL     1       6.718  -4.460  -5.390  1.00  0.00    +0.000 HD
ENDBRANCH  78  79
BRANCH  77  81
ATOM     81  O   UNL     1       8.766  -6.105  -3.038  1.00  0.00    +0.000 OA
ATOM     82  H   UNL     1       9.169  -5.963  -3.916  1.00  0.00    +0.000 HD
ENDBRANCH  77  81
BRANCH  76  83
ATOM     83  O   UNL     1       6.774  -6.890  -1.232  1.00  0.00    +0.000 OA
ATOM     84  H   UNL     1       7.664  -7.252  -1.422  1.00  0.00    +0.000 HD
ENDBRANCH  76  83
ENDBRANCH  72  73
ENDBRANCH  50  72
ENDBRANCH  49  53
ENDBRANCH   1  49
TORSDOF 20
