REMARK  Name = /srv/my_project/app/compsite/backup/Dave/CORINA_stuff/newPDBs/SANC00231.pdb
AUTHORGENERATED BY OPEN BABEL 2.3.2
REMARK  3 active torsions:
REMARK  status: ('A' for Active; 'I' for Inactive)
REMARK    1  A    between atoms: C_1  and  C_2
REMARK    2  A    between atoms: C_4  and  O_5
REMARK    3  A    between atoms: C_12  and  O_13
REMARK                            x       y       z     vdW  Elec       q    Type
REMARK                         _______ _______ _______ _____ _____    ______ ____
ROOT
ATOM      1  C   UNL     1       1.936   0.392   1.957  1.00  0.00    +0.000 C 
ATOM      2  C   UNL     1       1.791   0.220   0.467  1.00  0.00    +0.000 A 
ATOM      3  C   UNL     1       3.007   0.190  -0.261  1.00  0.00    +0.000 A 
ATOM      4  C   UNL     1       3.010   0.132  -1.648  1.00  0.00    +0.000 A 
ATOM      5  C   UNL     1       1.819   0.127  -2.341  1.00  0.00    +0.000 A 
ATOM      6  C   UNL     1       0.623   0.138  -1.622  1.00  0.00    +0.000 A 
ATOM      7  O   UNL     1      -0.535   0.239  -2.421  1.00  0.00    +0.000 OA
ATOM      8  C   UNL     1      -1.776   0.494  -1.877  1.00  0.00    +0.000 A 
ATOM      9  O   UNL     1      -2.734   0.828  -2.569  1.00  0.00    +0.000 OA
ATOM     10  C   UNL     1      -1.932   0.261  -0.426  1.00  0.00    +0.000 A 
ATOM     11  C   UNL     1      -3.235   0.225   0.111  1.00  0.00    +0.000 A 
ATOM     12  C   UNL     1      -3.442  -0.110   1.442  1.00  0.00    +0.000 A 
ATOM     13  C   UNL     1      -2.353  -0.438   2.234  1.00  0.00    +0.000 A 
ATOM     14  C   UNL     1      -1.058  -0.392   1.703  1.00  0.00    +0.000 A 
ATOM     15  C   UNL     1      -0.802   0.010   0.378  1.00  0.00    +0.000 A 
ATOM     16  C   UNL     1       0.551   0.114  -0.217  1.00  0.00    +0.000 A 
ENDROOT
BRANCH   4  17
ATOM     17  O   UNL     1       4.169   0.113  -2.362  1.00  0.00    +0.000 OA
ATOM     18  H   UNL     1       4.921   0.119  -1.747  1.00  0.00    +0.000 HD
ENDBRANCH   4  17
BRANCH  11  19
ATOM     19  O   UNL     1      -4.367   0.487  -0.615  1.00  0.00    +0.000 OA
ATOM     20  H   UNL     1      -4.110   0.715  -1.536  1.00  0.00    +0.000 HD
ENDBRANCH  11  19
TORSDOF 2
