REMARK  Name = 
REMARK  14 active torsions:
REMARK  status: ('A' for Active; 'I' for Inactive)
REMARK    1  A    between atoms: C_5  and  O_6
REMARK    2  A    between atoms: C_8  and  O_10
REMARK    3  A    between atoms: O_10  and  C_11
REMARK    4  A    between atoms: C_14  and  C_16
REMARK    5  A    between atoms: C_17  and  O_19
REMARK    6  A    between atoms: C_20  and  O_22
REMARK    7  A    between atoms: C_23  and  O_25
REMARK    8  A    between atoms: C_27  and  O_29
REMARK    9  A    between atoms: C_30  and  C_31
REMARK   10  A    between atoms: C_31  and  O_32
REMARK   11  A    between atoms: C_35  and  O_37
REMARK   12  A    between atoms: C_39  and  C_40
REMARK   13  A    between atoms: C_41  and  C_43
REMARK   14  A    between atoms: C_51  and  O_52
REMARK                            x       y       z     vdW  Elec       q    Type
REMARK                         _______ _______ _______ _____ _____    ______ ____
ROOT
ATOM      1  C   UNL     1      -2.004  -0.331   0.422  1.00  0.00    +0.000 C 
ATOM      2  C   UNL     1      -1.155   0.398   1.462  1.00  0.00    +0.000 C 
ATOM      3  C   UNL     1       0.243  -0.203   1.606  1.00  0.00    +0.000 C 
ATOM      4  C   UNL     1       0.786  -0.944   0.356  1.00  0.00    +0.000 C 
ATOM      5  C   UNL     1       2.328  -0.954   0.404  1.00  0.00    +0.000 C 
ATOM      6  C   UNL     1       2.957   0.431   0.195  1.00  0.00    +0.000 C 
ATOM      7  C   UNL     1       2.382   1.153  -1.026  1.00  0.00    +0.000 C 
ATOM      8  C   UNL     1       0.852   1.094  -1.120  1.00  0.00    +0.000 C 
ATOM      9  C   UNL     1       0.260  -0.361  -0.998  1.00  0.00    +0.000 C 
ATOM     10  C   UNL     1      -1.347  -0.298  -0.984  1.00  0.00    +0.000 C 
ATOM     11  C   UNL     1      -2.106  -1.289  -1.902  1.00  0.00    +0.000 C 
ATOM     12  C   UNL     1      -3.487  -1.731  -1.402  1.00  0.00    +0.000 C 
ATOM     13  C   UNL     1      -4.361  -0.696  -0.629  1.00  0.00    +0.000 C 
ATOM     14  C   UNL     1      -5.420  -1.562   0.106  1.00  0.00    +0.000 C 
ATOM     15  C   UNL     1      -5.021   0.324  -1.627  1.00  0.00    +0.000 C 
ATOM     16  C   UNL     1      -4.143   1.574  -1.561  1.00  0.00    +0.000 C 
ATOM     17  C   UNL     1      -3.644   1.632  -0.126  1.00  0.00    +0.000 C 
ATOM     18  C   UNL     1      -3.487   0.171   0.352  1.00  0.00    +0.000 C 
ENDROOT
BRANCH  15  19
ATOM     19  C   UNL     1      -6.476   0.665  -1.406  1.00  0.00    +0.000 C 
ATOM     20  C   UNL     1      -7.489   0.246  -2.167  1.00  0.00    +0.000 C 
ATOM     21  C   UNL     1      -8.715   0.805  -1.605  1.00  0.00    +0.000 C 
ATOM     22  O   UNL     1      -9.832   0.619  -2.053  1.00  0.00    +0.000 OA
ATOM     23  O   UNL     1      -8.405   1.557  -0.518  1.00  0.00    +0.000 OA
ATOM     24  C   UNL     1      -6.989   1.540  -0.324  1.00  0.00    +0.000 C 
ENDBRANCH  15  19
BRANCH   4  25
ATOM     25  O   UNL     1       0.348  -2.303   0.504  1.00  0.00    +0.000 OA
ATOM     26  H   UNL     1       0.501  -2.752  -0.357  1.00  0.00    +0.000 HD
ENDBRANCH   4  25
BRANCH   8  27
ATOM     27  O   UNL     1       0.438   1.735  -2.326  1.00  0.00    +0.000 OA
ATOM     28  H   UNL     1       0.946   1.386  -3.077  1.00  0.00    +0.000 HD
ENDBRANCH   8  27
BRANCH  11  29
ATOM     29  O   UNL     1      -2.234  -0.707  -3.199  1.00  0.00    +0.000 OA
ATOM     30  H   UNL     1      -2.658  -1.366  -3.776  1.00  0.00    +0.000 HD
ENDBRANCH  11  29
BRANCH  18  31
ATOM     31  O   UNL     1      -4.047   0.101   1.669  1.00  0.00    +0.000 OA
ATOM     32  H   UNL     1      -3.652   0.801   2.215  1.00  0.00    +0.000 HD
ENDBRANCH  18  31
BRANCH   6  33
ATOM     33  O   UNL     1       4.369   0.314  -0.026  1.00  0.00    +0.000 OA
BRANCH  33  34
ATOM     34  C   UNL     1       5.130   0.126   1.180  1.00  0.00    +0.000 C 
ATOM     35  O   UNL     1       5.030   1.284   2.009  1.00  0.00    +0.000 OA
ATOM     36  C   UNL     1       5.791   1.198   3.225  1.00  0.00    +0.000 C 
ATOM     37  C   UNL     1       5.186   0.200   4.207  1.00  0.00    +0.000 C 
ATOM     38  C   UNL     1       7.284   0.977   2.908  1.00  0.00    +0.000 C 
ATOM     39  C   UNL     1       7.515  -0.198   1.950  1.00  0.00    +0.000 C 
ATOM     40  C   UNL     1       6.588  -0.107   0.737  1.00  0.00    +0.000 C 
BRANCH  38  41
ATOM     41  O   UNL     1       7.800   2.171   2.291  1.00  0.00    +0.000 OA
ATOM     42  H   UNL     1       7.071   2.587   1.793  1.00  0.00    +0.000 HD
ENDBRANCH  38  41
BRANCH  39  43
ATOM     43  O   UNL     1       7.306  -1.449   2.616  1.00  0.00    +0.000 OA
ATOM     44  H   UNL     1       7.362  -2.122   1.905  1.00  0.00    +0.000 HD
ENDBRANCH  39  43
BRANCH  40  45
ATOM     45  O   UNL     1       6.697  -1.319  -0.032  1.00  0.00    +0.000 OA
ATOM     46  H   UNL     1       6.031  -1.230  -0.741  1.00  0.00    +0.000 HD
ENDBRANCH  40  45
ENDBRANCH  33  34
ENDBRANCH   6  33
BRANCH   9  47
ATOM     47  C   UNL     1       0.792  -1.176  -2.229  1.00  0.00    +0.000 C 
BRANCH  47  48
ATOM     48  O   UNL     1       0.689  -2.587  -2.036  1.00  0.00    +0.000 OA
ATOM     49  H   UNL     1       0.945  -3.004  -2.880  1.00  0.00    +0.000 HD
ENDBRANCH  47  48
ENDBRANCH   9  47
TORSDOF 12
