REMARK  Name = /srv/my_project/app/compsite/backup/Dave/CORINA_stuff/newPDBs/SANC00589.pdb
AUTHORGENERATED BY OPEN BABEL 2.3.2
REMARK  10 active torsions:
REMARK  status: ('A' for Active; 'I' for Inactive)
REMARK    1  A    between atoms: C_5  and  C_7
REMARK    2  A    between atoms: C_10  and  C_12
REMARK    3  A    between atoms: C_12  and  C_13
REMARK    4  A    between atoms: C_19  and  C_20
REMARK    5  A    between atoms: C_19  and  C_21
REMARK    6  A    between atoms: C_26  and  C_27
REMARK    7  A    between atoms: C_29  and  O_31
REMARK    8  A    between atoms: C_32  and  C_33
REMARK    9  A    between atoms: C_38  and  C_39
REMARK   10  A    between atoms: C_38  and  C_40
REMARK                            x       y       z     vdW  Elec       q    Type
REMARK                         _______ _______ _______ _____ _____    ______ ____
ROOT
ATOM      1  C   UNL     1       3.555   1.377  -0.706  1.00  0.00    +0.000 C 
ATOM      2  C   UNL     1       3.402   2.815  -1.232  1.00  0.00    +0.000 C 
ATOM      3  C   UNL     1       2.023   3.165  -1.769  1.00  0.00    +0.000 C 
ATOM      4  C   UNL     1       0.909   2.355  -1.111  1.00  0.00    +0.000 C 
ATOM      5  C   UNL     1       0.754   2.798   0.359  1.00  0.00    +0.000 C 
ATOM      6  C   UNL     1       1.104   0.801  -1.323  1.00  0.00    +0.000 C 
ATOM      7  O   UNL     1       0.502   0.127  -0.182  1.00  0.00    +0.000 OA
ATOM      8  C   UNL     1      -0.921  -0.054  -0.389  1.00  0.00    +0.000 C 
ATOM      9  C   UNL     1      -1.159   0.179  -1.880  1.00  0.00    +0.000 C 
ATOM     10  C   UNL     1       0.230   0.254  -2.478  1.00  0.00    +0.000 C 
ATOM     11  C   UNL     1       2.652   0.355  -1.460  1.00  0.00    +0.000 C 
ATOM     12  C   UNL     1       3.115   0.283  -2.945  1.00  0.00    +0.000 C 
ATOM     13  C   UNL     1       2.831  -1.082  -0.853  1.00  0.00    +0.000 C 
ATOM     14  C   UNL     1       4.245  -1.646  -0.770  1.00  0.00    +0.000 C 
ATOM     15  C   UNL     1       4.983  -1.033   0.398  1.00  0.00    +0.000 C 
ATOM     16  O   UNL     1       5.089  -1.638   1.466  1.00  0.00    +0.000 OA
ATOM     17  C   UNL     1       5.602   0.352   0.170  1.00  0.00    +0.000 C 
ATOM     18  C   UNL     1       5.657   1.156   1.474  1.00  0.00    +0.000 C 
ATOM     19  C   UNL     1       7.035   0.124  -0.329  1.00  0.00    +0.000 C 
ATOM     20  O   UNL     1       4.953   1.091  -0.861  1.00  0.00    +0.000 OA
ENDROOT
BRANCH   8  21
ATOM     21  C   UNL     1      -1.396  -1.424   0.226  1.00  0.00    +0.000 C 
ATOM     22  C   UNL     1      -0.877  -2.587  -0.643  1.00  0.00    +0.000 C 
ATOM     23  C   UNL     1      -0.810  -1.573   1.666  1.00  0.00    +0.000 C 
ATOM     24  C   UNL     1      -1.850  -1.010   2.637  1.00  0.00    +0.000 C 
ATOM     25  C   UNL     1      -3.073  -0.639   1.801  1.00  0.00    +0.000 C 
ATOM     26  O   UNL     1      -4.262  -0.907   2.532  1.00  0.00    +0.000 OA
ATOM     27  C   UNL     1      -5.375  -0.060   2.243  1.00  0.00    +0.000 C 
ATOM     28  C   UNL     1      -6.615  -0.789   2.774  1.00  0.00    +0.000 C 
ATOM     29  C   UNL     1      -5.204   1.249   3.029  1.00  0.00    +0.000 C 
ATOM     30  C   UNL     1      -5.618   0.246   0.745  1.00  0.00    +0.000 C 
ATOM     31  O   UNL     1      -6.000   1.350   0.349  1.00  0.00    +0.000 OA
ATOM     32  C   UNL     1      -5.359  -0.867  -0.249  1.00  0.00    +0.000 C 
ATOM     33  C   UNL     1      -3.872  -0.954  -0.596  1.00  0.00    +0.000 C 
ATOM     34  C   UNL     1      -2.958  -1.511   0.523  1.00  0.00    +0.000 C 
ATOM     35  C   UNL     1      -3.397  -2.976   0.821  1.00  0.00    +0.000 C 
ENDBRANCH   8  21
BRANCH  10  36
ATOM     36  O   UNL     1       0.241   1.052  -3.648  1.00  0.00    +0.000 OA
ATOM     37  H   UNL     1      -0.365   0.646  -4.291  1.00  0.00    +0.000 HD
ENDBRANCH  10  36
TORSDOF 2
