REMARK  Name = /srv/my_project/app/compsite/backup/Dave/CORINA_stuff/newPDBs/SANC00387.pdb
AUTHORGENERATED BY OPEN BABEL 2.3.2
REMARK  8 active torsions:
REMARK  status: ('A' for Active; 'I' for Inactive)
REMARK    1  A    between atoms: C_1  and  C_2
REMARK    2  A    between atoms: C_9  and  C_25
REMARK    3  A    between atoms: C_10  and  C_11
REMARK    4  A    between atoms: C_10  and  O_18
REMARK    5  A    between atoms: C_11  and  C_12
REMARK    6  A    between atoms: C_12  and  C_13
REMARK    7  A    between atoms: C_22  and  C_23
REMARK    8  A    between atoms: C_22  and  C_24
REMARK                            x       y       z     vdW  Elec       q    Type
REMARK                         _______ _______ _______ _____ _____    ______ ____
ROOT
ATOM      1  C   UNL     1       1.020   2.856   1.398  1.00  0.00    +0.000 C 
ATOM      2  C   UNL     1       0.566   2.014   0.200  1.00  0.00    +0.000 C 
ATOM      3  C   UNL     1      -0.839   2.487  -0.135  1.00  0.00    +0.000 C 
ATOM      4  O   UNL     1      -1.024   3.482  -0.838  1.00  0.00    +0.000 OA
ATOM      5  C   UNL     1      -1.993   1.751   0.489  1.00  0.00    +0.000 C 
ATOM      6  C   UNL     1      -1.940   0.236   0.223  1.00  0.00    +0.000 C 
ATOM      7  C   UNL     1      -0.577  -0.267  -0.386  1.00  0.00    +0.000 C 
ATOM      8  C   UNL     1       0.622   0.463   0.395  1.00  0.00    +0.000 C 
ATOM      9  C   UNL     1      -0.530  -1.824  -0.201  1.00  0.00    +0.000 C 
ATOM     10  C   UNL     1      -1.893  -2.522  -0.110  1.00  0.00    +0.000 C 
ATOM     11  C   UNL     1      -2.987  -1.827  -0.908  1.00  0.00    +0.000 C 
ATOM     12  C   UNL     1      -3.235  -0.366  -0.442  1.00  0.00    +0.000 C 
ATOM     13  C   UNL     1      -3.776   0.445  -1.639  1.00  0.00    +0.000 C 
ATOM     14  C   UNL     1      -4.364  -0.385   0.623  1.00  0.00    +0.000 C 
ATOM     15  C   UNL     1      -0.453   0.011  -1.911  1.00  0.00    +0.000 C 
ENDROOT
BRANCH   8  16
ATOM     16  O   UNL     1       0.456   0.205   1.801  1.00  0.00    +0.000 OA
ATOM     17  H   UNL     1       0.708  -0.715   1.991  1.00  0.00    +0.000 HD
ENDBRANCH   8  16
BRANCH   8  18
ATOM     18  C   UNL     1       2.014  -0.107  -0.026  1.00  0.00    +0.000 C 
BRANCH  18  19
ATOM     19  C   UNL     1       3.225   0.423   0.755  1.00  0.00    +0.000 C 
BRANCH  19  20
ATOM     20  C   UNL     1       4.465  -0.353   0.452  1.00  0.00    +0.000 A 
ATOM     21  C   UNL     1       5.328  -0.169  -0.610  1.00  0.00    +0.000 A 
ATOM     22  O   UNL     1       6.347  -1.063  -0.565  1.00  0.00    +0.000 OA
ATOM     23  C   UNL     1       6.150  -1.831   0.536  1.00  0.00    +0.000 A 
ATOM     24  C   UNL     1       5.010  -1.438   1.196  1.00  0.00    +0.000 A 
ENDBRANCH  19  20
ENDBRANCH  18  19
ENDBRANCH   8  18
TORSDOF 4
