REMARK  Name = /srv/my_project/app/compsite/backup/Dave/CORINA_stuff/newPDBs/SANC00529.pdb
AUTHORGENERATED BY OPEN BABEL 2.3.2
REMARK  7 active torsions:
REMARK  status: ('A' for Active; 'I' for Inactive)
REMARK    1  A    between atoms: C_1  and  O_2
REMARK    2  A    between atoms: O_2  and  C_3
REMARK    3  A    between atoms: C_4  and  O_5
REMARK    4  A    between atoms: C_6  and  O_7
REMARK    5  A    between atoms: C_8  and  O_9
REMARK    6  A    between atoms: C_14  and  C_15
REMARK    7  A    between atoms: C_18  and  O_19
REMARK                            x       y       z     vdW  Elec       q    Type
REMARK                         _______ _______ _______ _____ _____    ______ ____
ROOT
ATOM      1  C   UNL     1      -3.401   0.371   0.263  1.00  0.00    +0.000 A 
ATOM      2  C   UNL     1      -3.950  -0.912   0.249  1.00  0.00    +0.000 A 
ATOM      3  C   UNL     1      -3.149  -2.027   0.437  1.00  0.00    +0.000 A 
ATOM      4  C   UNL     1      -1.781  -1.890   0.652  1.00  0.00    +0.000 A 
ATOM      5  C   UNL     1      -1.205  -0.615   0.700  1.00  0.00    +0.000 A 
ATOM      6  C   UNL     1       0.261  -0.419   0.896  1.00  0.00    +0.000 C 
ATOM      7  O   UNL     1       1.046  -1.331   1.105  1.00  0.00    +0.000 OA
ATOM      8  C   UNL     1       0.706   1.003   0.884  1.00  0.00    +0.000 C 
ATOM      9  C   UNL     1       1.921   1.423   0.485  1.00  0.00    +0.000 C 
ATOM     10  C   UNL     1      -0.350   1.914   1.406  1.00  0.00    +0.000 C 
ATOM     11  O   UNL     1      -1.535   1.802   0.617  1.00  0.00    +0.000 OA
ATOM     12  C   UNL     1      -2.028   0.523   0.531  1.00  0.00    +0.000 A 
ENDROOT
BRANCH   9  13
ATOM     13  C   UNL     1       2.994   0.604  -0.085  1.00  0.00    +0.000 A 
ATOM     14  C   UNL     1       2.831  -0.051  -1.312  1.00  0.00    +0.000 A 
ATOM     15  C   UNL     1       3.880  -0.791  -1.860  1.00  0.00    +0.000 A 
ATOM     16  C   UNL     1       5.090  -0.875  -1.183  1.00  0.00    +0.000 A 
ATOM     17  C   UNL     1       5.273  -0.227   0.035  1.00  0.00    +0.000 A 
ATOM     18  C   UNL     1       4.223   0.517   0.581  1.00  0.00    +0.000 A 
BRANCH  16  19
ATOM     19  O   UNL     1       6.088  -1.610  -1.752  1.00  0.00    +0.000 OA
ATOM     20  H   UNL     1       6.828  -1.658  -1.125  1.00  0.00    +0.000 HD
ENDBRANCH  16  19
ENDBRANCH   9  13
BRANCH   1  22
ATOM     21  C   UNL     1      -3.853   2.484  -0.706  1.00  0.00    +0.000 C 
ATOM     22  O   UNL     1      -4.315   1.377   0.065  1.00  0.00    +0.000 OA
ENDBRANCH   1  22
BRANCH   2  23
ATOM     23  O   UNL     1      -5.291  -1.106   0.040  1.00  0.00    +0.000 OA
ATOM     24  H   UNL     1      -5.668  -0.206  -0.034  1.00  0.00    +0.000 HD
ENDBRANCH   2  23
BRANCH   3  25
ATOM     25  O   UNL     1      -3.697  -3.283   0.407  1.00  0.00    +0.000 OA
ATOM     26  H   UNL     1      -4.651  -3.132   0.243  1.00  0.00    +0.000 HD
ENDBRANCH   3  25
BRANCH   4  27
ATOM     27  O   UNL     1      -1.055  -3.037   0.811  1.00  0.00    +0.000 OA
ATOM     28  H   UNL     1      -1.692  -3.775   0.734  1.00  0.00    +0.000 HD
ENDBRANCH   4  27
TORSDOF 6
