REMARK  Name = /srv/my_project/app/compsite/backup/Dave/CORINA_stuff/newPDBs/SANC00391.pdb
AUTHORGENERATED BY OPEN BABEL 2.3.2
REMARK  29 active torsions:
REMARK  status: ('A' for Active; 'I' for Inactive)
REMARK    1  A    between atoms: C_2  and  O_3
REMARK    2  A    between atoms: O_3  and  C_4
REMARK    3  A    between atoms: C_15  and  O_17
REMARK    4  A    between atoms: C_20  and  C_21
REMARK    5  A    between atoms: C_26  and  C_27
REMARK    6  A    between atoms: C_28  and  O_29
REMARK    7  A    between atoms: C_28  and  C_30
REMARK    8  A    between atoms: C_30  and  C_32
REMARK    9  A    between atoms: C_30  and  C_33
REMARK   10  A    between atoms: C_33  and  C_35
REMARK   11  A    between atoms: C_35  and  C_36
REMARK   12  A    between atoms: C_36  and  C_37
REMARK   13  A    between atoms: C_37  and  C_38
REMARK   14  A    between atoms: C_37  and  C_39
REMARK   15  A    between atoms: C_42  and  O_44
REMARK   16  A    between atoms: C_45  and  O_47
REMARK   17  A    between atoms: O_47  and  C_48
REMARK   18  A    between atoms: C_52  and  O_54
REMARK   19  A    between atoms: C_55  and  O_57
REMARK   20  A    between atoms: C_58  and  O_60
REMARK   21  A    between atoms: O_60  and  C_61
REMARK   22  A    between atoms: C_61  and  C_63
REMARK   23  A    between atoms: C_66  and  O_67
REMARK   24  A    between atoms: O_67  and  C_68
REMARK   25  A    between atoms: C_69  and  O_70
REMARK   26  A    between atoms: O_70  and  C_71
REMARK   27  A    between atoms: C_73  and  O_75
REMARK   28  A    between atoms: O_75  and  C_76
REMARK   29  A    between atoms: C_76  and  C_77
REMARK                            x       y       z     vdW  Elec       q    Type
REMARK                         _______ _______ _______ _____ _____    ______ ____
ROOT
ATOM      1  C   UNL     1       0.191   1.451   0.485  1.00  0.00    +0.000 C 
ATOM      2  O   UNL     1       0.272   2.881   0.501  1.00  0.00    +0.000 OA
ATOM      3  C   UNL     1       0.307   3.442  -0.809  1.00  0.00    +0.000 C 
ATOM      4  C   UNL     1       1.540   2.989  -1.598  1.00  0.00    +0.000 C 
ATOM      5  C   UNL     1       2.303   1.875  -0.863  1.00  0.00    +0.000 C 
ATOM      6  C   UNL     1       1.339   0.803  -0.336  1.00  0.00    +0.000 C 
ENDROOT
BRANCH   4   7
ATOM      7  O   UNL     1       1.158   2.611  -2.925  1.00  0.00    +0.000 OA
ATOM      8  H   UNL     1       0.567   1.826  -2.877  1.00  0.00    +0.000 HD
ENDBRANCH   4   7
BRANCH   6   9
ATOM      9  O   UNL     1       2.128  -0.074   0.522  1.00  0.00    +0.000 OA
BRANCH   9  10
ATOM     10  C   UNL     1       1.933  -1.413   0.395  1.00  0.00    +0.000 C 
ATOM     11  C   UNL     1       2.918  -2.175   1.228  1.00  0.00    +0.000 C 
ATOM     12  O   UNL     1       1.072  -1.948  -0.294  1.00  0.00    +0.000 OA
ENDBRANCH   9  10
ENDBRANCH   6   9
BRANCH   5  13
ATOM     13  O   UNL     1       3.255   1.233  -1.734  1.00  0.00    +0.000 OA
BRANCH  13  14
ATOM     14  C   UNL     1       4.599   1.674  -1.545  1.00  0.00    +0.000 C 
ATOM     15  O   UNL     1       4.816   2.970  -2.103  1.00  0.00    +0.000 OA
ATOM     16  C   UNL     1       4.574   3.053  -3.514  1.00  0.00    +0.000 C 
ATOM     17  C   UNL     1       4.900   1.775  -4.289  1.00  0.00    +0.000 C 
ATOM     18  C   UNL     1       6.009   1.026  -3.564  1.00  0.00    +0.000 C 
ATOM     19  C   UNL     1       5.563   0.622  -2.154  1.00  0.00    +0.000 C 
BRANCH  17  20
ATOM     20  O   UNL     1       5.322   2.089  -5.620  1.00  0.00    +0.000 OA
ATOM     21  H   UNL     1       5.685   1.251  -5.971  1.00  0.00    +0.000 HD
ENDBRANCH  17  20
BRANCH  18  22
ATOM     22  O   UNL     1       6.378  -0.134  -4.334  1.00  0.00    +0.000 OA
ATOM     23  H   UNL     1       7.080  -0.591  -3.835  1.00  0.00    +0.000 HD
ENDBRANCH  18  22
BRANCH  19  24
ATOM     24  O   UNL     1       6.790   0.499  -1.382  1.00  0.00    +0.000 OA
BRANCH  24  25
ATOM     25  C   UNL     1       6.680  -0.159  -0.203  1.00  0.00    +0.000 C 
ATOM     26  O   UNL     1       5.653  -0.638   0.248  1.00  0.00    +0.000 OA
BRANCH  25  27
ATOM     27  C   UNL     1       7.998  -0.235   0.483  1.00  0.00    +0.000 A 
ATOM     28  C   UNL     1       8.089  -1.007   1.646  1.00  0.00    +0.000 A 
ATOM     29  C   UNL     1       9.304  -1.115   2.328  1.00  0.00    +0.000 A 
ATOM     30  C   UNL     1      10.439  -0.449   1.857  1.00  0.00    +0.000 A 
ATOM     31  C   UNL     1      10.352   0.337   0.688  1.00  0.00    +0.000 A 
ATOM     32  C   UNL     1       9.132   0.439   0.008  1.00  0.00    +0.000 A 
BRANCH  31  33
ATOM     33  O   UNL     1      11.512   0.958   0.294  1.00  0.00    +0.000 OA
ATOM     34  C   UNL     1      11.457   1.819  -0.834  1.00  0.00    +0.000 C 
ENDBRANCH  31  33
BRANCH  30  35
ATOM     35  O   UNL     1      11.671  -0.495   2.460  1.00  0.00    +0.000 OA
ATOM     36  C   UNL     1      11.805  -1.285   3.633  1.00  0.00    +0.000 C 
ENDBRANCH  30  35
ENDBRANCH  25  27
ENDBRANCH  24  25
ENDBRANCH  19  24
ENDBRANCH  13  14
ENDBRANCH   5  13
BRANCH   1  37
ATOM     37  O   UNL     1      -1.105   1.052   0.009  1.00  0.00    +0.000 OA
BRANCH  37  38
ATOM     38  C   UNL     1      -1.512  -0.203   0.526  1.00  0.00    +0.000 C 
ATOM     39  C   UNL     1      -2.357   0.011   1.805  1.00  0.00    +0.000 C 
ATOM     40  C   UNL     1      -3.413  -1.082   1.730  1.00  0.00    +0.000 C 
ATOM     41  C   UNL     1      -4.613  -0.999   2.684  1.00  0.00    +0.000 C 
ATOM     42  C   UNL     1      -4.143  -0.983   4.147  1.00  0.00    +0.000 C 
ATOM     43  C   UNL     1      -5.200  -1.357   5.135  1.00  0.00    +0.000 C 
ATOM     44  C   UNL     1      -6.399  -1.871   4.811  1.00  0.00    +0.000 C 
ATOM     45  C   UNL     1      -7.346  -2.357   5.882  1.00  0.00    +0.000 C 
ATOM     46  C   UNL     1      -7.518  -3.883   5.804  1.00  0.00    +0.000 C 
ATOM     47  C   UNL     1      -7.261  -4.454   4.402  1.00  0.00    +0.000 C 
ATOM     48  C   UNL     1      -7.665  -3.457   3.312  1.00  0.00    +0.000 C 
ATOM     49  C   UNL     1      -6.846  -2.124   3.363  1.00  0.00    +0.000 C 
ATOM     50  C   UNL     1      -7.795  -0.973   2.949  1.00  0.00    +0.000 C 
ATOM     51  C   UNL     1      -5.583  -2.195   2.418  1.00  0.00    +0.000 C 
ATOM     52  C   UNL     1      -5.921  -2.333   0.907  1.00  0.00    +0.000 C 
ATOM     53  C   UNL     1      -4.683  -2.317  -0.009  1.00  0.00    +0.000 C 
ATOM     54  C   UNL     1      -3.802  -1.075   0.233  1.00  0.00    +0.000 C 
ATOM     55  C   UNL     1      -4.596   0.196  -0.160  1.00  0.00    +0.000 C 
ATOM     56  C   UNL     1      -2.372  -1.103  -0.448  1.00  0.00    +0.000 C 
BRANCH  56  57
ATOM     57  C   UNL     1      -2.390  -0.848  -1.996  1.00  0.00    +0.000 C 
ATOM     58  C   UNL     1      -1.620  -1.900  -2.820  1.00  0.00    +0.000 C 
BRANCH  57  59
ATOM     59  C   UNL     1      -1.921   0.520  -2.507  1.00  0.00    +0.000 C 
ATOM     60  O   UNL     1      -0.732   0.739  -2.761  1.00  0.00    +0.000 OA
BRANCH  59  61
ATOM     61  C   UNL     1      -2.969   1.601  -2.723  1.00  0.00    +0.000 C 
BRANCH  61  62
ATOM     62  C   UNL     1      -2.571   2.575  -3.834  1.00  0.00    +0.000 C 
BRANCH  62  63
ATOM     63  C   UNL     1      -3.567   3.734  -4.019  1.00  0.00    +0.000 C 
ATOM     64  C   UNL     1      -4.946   3.253  -4.472  1.00  0.00    +0.000 C 
ATOM     65  C   UNL     1      -3.012   4.739  -5.032  1.00  0.00    +0.000 C 
ENDBRANCH  62  63
ENDBRANCH  61  62
ENDBRANCH  59  61
ENDBRANCH  57  59
ENDBRANCH  56  57
BRANCH  56  66
ATOM     66  O   UNL     1      -1.861  -2.452  -0.235  1.00  0.00    +0.000 OA
ATOM     67  H   UNL     1      -0.897  -2.445  -0.423  1.00  0.00    +0.000 HD
ENDBRANCH  56  66
BRANCH  46  68
ATOM     68  O   UNL     1      -8.843  -4.227   6.219  1.00  0.00    +0.000 OA
ATOM     69  H   UNL     1      -9.465  -3.858   5.569  1.00  0.00    +0.000 HD
ENDBRANCH  46  68
ENDBRANCH  37  38
ENDBRANCH   1  37
TORSDOF 21
