REMARK  Name = SANCDB_00843_minRM1.pdb
AUTHORGENERATED BY OPEN BABEL 2.3.2
REMARK  11 active torsions:
REMARK  status: ('A' for Active; 'I' for Inactive)
REMARK    1  A    between atoms: C_3  and  O_33
REMARK    2  A    between atoms: C_6  and  C_7
REMARK    3  A    between atoms: C_8  and  O_20
REMARK    4  A    between atoms: C_12  and  O_19
REMARK    5  A    between atoms: C_14  and  O_18
REMARK    6  A    between atoms: O_20  and  C_21
REMARK    7  A    between atoms: C_22  and  O_32
REMARK    8  A    between atoms: C_23  and  O_31
REMARK    9  A    between atoms: C_24  and  O_30
REMARK   10  A    between atoms: C_25  and  C_27
REMARK   11  A    between atoms: C_27  and  O_29
REMARK                            x       y       z     vdW  Elec       q    Type
REMARK                         _______ _______ _______ _____ _____    ______ ____
ROOT
ATOM      1  C   UNL     1      -1.679  -0.674   0.034  1.00  0.00    +0.000 A 
ATOM      2  C   UNL     1      -1.037   0.316  -0.618  1.00  0.00    +0.000 A 
ATOM      3  C   UNL     1      -1.492   1.712  -0.394  1.00  0.00    +0.000 A 
ATOM      4  O   UNL     1      -1.045   2.670  -1.021  1.00  0.00    +0.000 OA
ATOM      5  C   UNL     1      -2.530   1.921   0.622  1.00  0.00    +0.000 A 
ATOM      6  C   UNL     1      -2.978   3.203   0.961  1.00  0.00    +0.000 A 
ATOM      7  C   UNL     1      -3.965   3.371   1.929  1.00  0.00    +0.000 A 
ATOM      8  C   UNL     1      -4.502   2.247   2.551  1.00  0.00    +0.000 A 
ATOM      9  C   UNL     1      -4.067   0.967   2.219  1.00  0.00    +0.000 A 
ATOM     10  C   UNL     1      -3.076   0.806   1.250  1.00  0.00    +0.000 A 
ATOM     11  O   UNL     1      -2.691  -0.477   0.961  1.00  0.00    +0.000 OA
ENDROOT
BRANCH   1  17
ATOM     12  C   UNL     1      -1.016  -2.890   0.958  1.00  0.00    +0.000 A 
ATOM     13  C   UNL     1      -0.692  -4.240   0.801  1.00  0.00    +0.000 A 
ATOM     14  C   UNL     1      -0.703  -4.801  -0.472  1.00  0.00    +0.000 A 
ATOM     15  C   UNL     1      -1.034  -4.037  -1.584  1.00  0.00    +0.000 A 
ATOM     16  C   UNL     1      -1.359  -2.688  -1.426  1.00  0.00    +0.000 A 
ATOM     17  C   UNL     1      -1.345  -2.098  -0.153  1.00  0.00    +0.000 A 
BRANCH  14  18
ATOM     18  O   UNL     1      -0.393  -6.113  -0.673  1.00  0.00    +0.000 OA
ATOM     19  H   UNL     1      -0.203  -6.523   0.187  1.00  0.00    +0.000 HD
ENDBRANCH  14  18
ENDBRANCH   1  17
BRANCH   8  20
ATOM     20  O   UNL     1      -5.470   2.359   3.504  1.00  0.00    +0.000 OA
ATOM     21  H   UNL     1      -5.677   3.301   3.632  1.00  0.00    +0.000 HD
ENDBRANCH   8  20
BRANCH   6  22
ATOM     22  O   UNL     1      -2.487   4.342   0.379  1.00  0.00    +0.000 OA
ATOM     23  H   UNL     1      -1.818   4.075  -0.293  1.00  0.00    +0.000 HD
ENDBRANCH   6  22
BRANCH   2  24
ATOM     24  O   UNL     1      -0.006   0.125  -1.519  1.00  0.00    +0.000 OA
BRANCH  24  25
ATOM     25  C   UNL     1       1.269  -0.042  -0.856  1.00  0.00    +0.000 C 
ATOM     26  C   UNL     1       2.341   0.186  -1.930  1.00  0.00    +0.000 C 
ATOM     27  C   UNL     1       3.725  -0.139  -1.360  1.00  0.00    +0.000 C 
ATOM     28  C   UNL     1       3.829   0.114   0.151  1.00  0.00    +0.000 C 
ATOM     29  C   UNL     1       2.781   1.119   0.649  1.00  0.00    +0.000 C 
ATOM     30  O   UNL     1       1.434   0.845   0.251  1.00  0.00    +0.000 OA
BRANCH  29  31
ATOM     31  C   UNL     1       3.257   2.534   0.322  1.00  0.00    +0.000 C 
ATOM     32  O   UNL     1       4.197   3.109   0.851  1.00  0.00    +0.000 OA
BRANCH  31  33
ATOM     33  O   UNL     1       2.554   3.139  -0.653  1.00  0.00    +0.000 OA
ATOM     34  H   UNL     1       2.951   4.031  -0.737  1.00  0.00    +0.000 HD
ENDBRANCH  31  33
ENDBRANCH  29  31
BRANCH  28  35
ATOM     35  O   UNL     1       3.616  -1.133   0.842  1.00  0.00    +0.000 OA
ATOM     36  H   UNL     1       4.407  -1.682   0.689  1.00  0.00    +0.000 HD
ENDBRANCH  28  35
BRANCH  27  37
ATOM     37  O   UNL     1       4.713   0.633  -2.055  1.00  0.00    +0.000 OA
ATOM     38  H   UNL     1       4.590   0.434  -3.004  1.00  0.00    +0.000 HD
ENDBRANCH  27  37
BRANCH  26  39
ATOM     39  O   UNL     1       2.133  -0.623  -3.101  1.00  0.00    +0.000 OA
ATOM     40  H   UNL     1       1.200  -0.484  -3.355  1.00  0.00    +0.000 HD
ENDBRANCH  26  39
ENDBRANCH  24  25
ENDBRANCH   2  24
TORSDOF 11
