REMARK  Name = 
REMARK  5 active torsions:
REMARK  status: ('A' for Active; 'I' for Inactive)
REMARK    1  A    between atoms: C_7  and  C_9
REMARK    2  A    between atoms: C_9  and  C_10
REMARK    3  A    between atoms: C_18  and  C_20
REMARK    4  A    between atoms: C_20  and  C_21
REMARK    5  A    between atoms: C_22  and  C_23
REMARK                            x       y       z     vdW  Elec       q    Type
REMARK                         _______ _______ _______ _____ _____    ______ ____
ROOT
ATOM      1  C   UNL     1      -0.186  -2.389   0.373  1.00  0.00    +0.000 C 
ATOM      2  C   UNL     1      -0.630  -1.318   1.350  1.00  0.00    +0.000 C 
ATOM      3  C   UNL     1       0.037  -0.099   0.757  1.00  0.00    +0.000 C 
ATOM      4  O   UNL     1      -0.500   0.294  -0.511  1.00  0.00    +0.000 OA
ATOM      5  C   UNL     1      -1.887   0.601  -0.660  1.00  0.00    +0.000 C 
ATOM      6  C   UNL     1      -2.814  -0.637  -0.614  1.00  0.00    +0.000 C 
ATOM      7 BR   UNL     1      -4.504  -0.204  -1.590  1.00  0.00    +0.000 Br
ATOM      8  C   UNL     1      -2.311  -1.981  -1.179  1.00  0.00    +0.000 C 
ATOM      9  C   UNL     1      -0.828  -2.345  -1.034  1.00  0.00    +0.000 C 
ATOM     10 BR   UNL     1      -0.612  -4.167  -1.831  1.00  0.00    +0.000 Br
ATOM     11  C   UNL     1       1.445  -0.698   0.539  1.00  0.00    +0.000 C 
ATOM     12  O   UNL     1       1.231  -2.104   0.211  1.00  0.00    +0.000 OA
ENDROOT
BRANCH   5  13
ATOM     13  C   UNL     1      -2.335   1.715   0.309  1.00  0.00    +0.000 C 
ATOM     14  C   UNL     1      -1.543   3.004   0.124  1.00  0.00    +0.000 C 
ENDBRANCH   5  13
BRANCH  11  15
ATOM     15  C   UNL     1       2.314  -0.053  -0.543  1.00  0.00    +0.000 C 
BRANCH  15  16
ATOM     16  C   UNL     1       2.570   1.412  -0.310  1.00  0.00    +0.000 C 
ATOM     17  C   UNL     1       3.659   1.960   0.248  1.00  0.00    +0.000 C 
BRANCH  17  18
ATOM     18  C   UNL     1       4.750   1.201   0.748  1.00  0.00    +0.000 C 
ATOM     19  C   UNL     1       5.673   0.563   1.172  1.00  0.00    +0.000 C 
ENDBRANCH  17  18
ENDBRANCH  15  16
ENDBRANCH  11  15
TORSDOF 4
