REMARK  Name = /srv/my_project/app/compsite/backup/Dave/CORINA_stuff/newPDBs/SANC00582.pdb
AUTHORGENERATED BY OPEN BABEL 2.3.2
REMARK  21 active torsions:
REMARK  status: ('A' for Active; 'I' for Inactive)
REMARK    1  A    between atoms: C_1  and  C_2
REMARK    2  A    between atoms: C_2  and  O_4
REMARK    3  A    between atoms: O_4  and  C_5
REMARK    4  A    between atoms: C_8  and  O_9
REMARK    5  A    between atoms: O_9  and  C_10
REMARK    6  A    between atoms: C_10  and  C_11
REMARK    7  A    between atoms: C_16  and  O_17
REMARK    8  A    between atoms: O_17  and  C_18
REMARK    9  A    between atoms: C_18  and  C_20
REMARK   10  A    between atoms: C_21  and  C_22
REMARK   11  A    between atoms: N_24  and  C_25
REMARK   12  A    between atoms: C_28  and  C_29
REMARK   13  A    between atoms: C_32  and  O_33
REMARK   14  A    between atoms: C_35  and  C_36
REMARK   15  A    between atoms: C_39  and  C_41
REMARK   16  A    between atoms: C_41  and  C_42
REMARK   17  A    between atoms: C_41  and  C_43
REMARK   18  A    between atoms: C_44  and  O_45
REMARK   19  A    between atoms: O_45  and  C_46
REMARK   20  A    between atoms: C_46  and  C_47
REMARK   21  A    between atoms: C_49  and  O_50
REMARK                            x       y       z     vdW  Elec       q    Type
REMARK                         _______ _______ _______ _____ _____    ______ ____
ROOT
ATOM      1  C   UNL     1      -1.521  -1.141  -0.185  1.00  0.00    +0.000 C 
ATOM      2  C   UNL     1      -0.640  -2.241  -0.862  1.00  0.00    +0.000 C 
ATOM      3  C   UNL     1       0.898  -2.085  -1.007  1.00  0.00    +0.000 C 
ATOM      4  C   UNL     1       1.600  -2.038   0.387  1.00  0.00    +0.000 C 
ATOM      5  C   UNL     1       2.731  -0.978   0.385  1.00  0.00    +0.000 C 
ATOM      6  C   UNL     1       2.419   0.335   1.143  1.00  0.00    +0.000 C 
ATOM      7  C   UNL     1       1.126   1.108   0.744  1.00  0.00    +0.000 C 
ATOM      8  C   UNL     1       1.026   2.428   1.524  1.00  0.00    +0.000 C 
ATOM      9  C   UNL     1       0.950   1.369  -0.718  1.00  0.00    +0.000 C 
ATOM     10  C   UNL     1      -0.240   0.913  -1.114  1.00  0.00    +0.000 C 
ATOM     11  C   UNL     1      -0.961   0.293   0.028  1.00  0.00    +0.000 C 
ATOM     12  O   UNL     1      -0.021   0.307   1.109  1.00  0.00    +0.000 OA
ATOM     13  C   UNL     1       2.130  -3.382   0.841  1.00  0.00    +0.000 C 
ATOM     14  C   UNL     1       2.098  -3.669   2.315  1.00  0.00    +0.000 C 
ATOM     15  C   UNL     1       2.650  -4.241  -0.045  1.00  0.00    +0.000 C 
ATOM     16  C   UNL     1       2.716  -3.898  -1.494  1.00  0.00    +0.000 C 
ATOM     17  C   UNL     1       1.446  -3.186  -2.002  1.00  0.00    +0.000 C 
ENDROOT
BRANCH  17  18
ATOM     18  C   UNL     1       1.686  -2.618  -3.448  1.00  0.00    +0.000 C 
ATOM     19  C   UNL     1       2.244  -3.678  -4.411  1.00  0.00    +0.000 C 
ATOM     20  C   UNL     1       0.424  -2.022  -4.083  1.00  0.00    +0.000 C 
ENDBRANCH  17  18
BRANCH  11  21
ATOM     21  O   UNL     1      -2.005   1.207   0.338  1.00  0.00    +0.000 OA
ATOM     22  H   UNL     1      -2.593   0.720   0.947  1.00  0.00    +0.000 HD
ENDBRANCH  11  21
BRANCH   1  23
ATOM     23  C   UNL     1      -2.104  -1.715   1.133  1.00  0.00    +0.000 C 
BRANCH  23  24
ATOM     24  O   UNL     1      -3.079  -0.832   1.694  1.00  0.00    +0.000 OA
BRANCH  24  28
ATOM     25  C   UNL     1      -7.087  -0.886   0.361  1.00  0.00    +0.000 C 
ATOM     26  C   UNL     1      -6.041  -1.882  -0.157  1.00  0.00    +0.000 C 
ATOM     27  O   UNL     1      -4.703  -1.438   0.098  1.00  0.00    +0.000 OA
ATOM     28  C   UNL     1      -4.431  -1.259   1.488  1.00  0.00    +0.000 C 
ATOM     29  C   UNL     1      -5.358  -0.185   2.098  1.00  0.00    +0.000 C 
ATOM     30  C   UNL     1      -6.818  -0.609   1.850  1.00  0.00    +0.000 C 
BRANCH  30  31
ATOM     31  O   UNL     1      -7.788   0.313   2.357  1.00  0.00    +0.000 OA
ATOM     32  H   UNL     1      -7.346   0.943   2.964  1.00  0.00    +0.000 HD
ENDBRANCH  30  31
BRANCH  25  33
ATOM     33  O   UNL     1      -7.001   0.358  -0.371  1.00  0.00    +0.000 OA
BRANCH  33  35
ATOM     34  C   UNL     1      -7.424   1.712  -2.232  1.00  0.00    +0.000 C 
ATOM     35  C   UNL     1      -7.577   0.363  -1.601  1.00  0.00    +0.000 C 
ATOM     36  O   UNL     1      -8.132  -0.591  -2.126  1.00  0.00    +0.000 OA
ENDBRANCH  33  35
ENDBRANCH  25  33
BRANCH  29  37
ATOM     37  O   UNL     1      -5.040   1.082   1.468  1.00  0.00    +0.000 OA
BRANCH  37  38
ATOM     38  C   UNL     1      -5.407   2.200   2.139  1.00  0.00    +0.000 C 
ATOM     39  C   UNL     1      -4.966   3.424   1.399  1.00  0.00    +0.000 C 
ATOM     40  O   UNL     1      -6.026   2.203   3.196  1.00  0.00    +0.000 OA
ENDBRANCH  37  38
ENDBRANCH  29  37
ENDBRANCH  24  28
ENDBRANCH  23  24
ENDBRANCH   1  23
BRANCH   6  41
ATOM     41  O   UNL     1       3.557   1.217   0.956  1.00  0.00    +0.000 OA
BRANCH  41  42
ATOM     42  C   UNL     1       4.554   1.128   1.865  1.00  0.00    +0.000 C 
ATOM     43  O   UNL     1       4.592   0.374   2.826  1.00  0.00    +0.000 OA
BRANCH  42  44
ATOM     44  C   UNL     1       5.649   2.073   1.576  1.00  0.00    +0.000 C 
ATOM     45  C   UNL     1       5.664   2.921   0.536  1.00  0.00    +0.000 C 
BRANCH  45  46
ATOM     46  C   UNL     1       6.699   3.842   0.230  1.00  0.00    +0.000 A 
ATOM     47  C   UNL     1       7.878   4.083   0.896  1.00  0.00    +0.000 A 
ATOM     48  N   UNL     1       8.489   5.065   0.167  1.00  0.00    +0.000 N 
ATOM     49  C   UNL     1       9.763   5.677   0.446  1.00  0.00    +0.000 C 
ATOM     50  C   UNL     1       7.677   5.372  -0.887  1.00  0.00    +0.000 A 
ATOM     51  N   UNL     1       6.582   4.644  -0.874  1.00  0.00    +0.000 NA
ENDBRANCH  45  46
ENDBRANCH  42  44
ENDBRANCH  41  42
ENDBRANCH   6  41
TORSDOF 14
