REMARK  Name = /srv/my_project/app/compsite/backup/Dave/CORINA_stuff/newPDBs/SANC00220.pdb
AUTHORGENERATED BY OPEN BABEL 2.3.2
REMARK  21 active torsions:
REMARK  status: ('A' for Active; 'I' for Inactive)
REMARK    1  A    between atoms: C_2  and  O_3
REMARK    2  A    between atoms: O_3  and  C_4
REMARK    3  A    between atoms: C_16  and  C_17
REMARK    4  A    between atoms: C_18  and  C_20
REMARK    5  A    between atoms: C_29  and  O_30
REMARK    6  A    between atoms: C_31  and  C_32
REMARK    7  A    between atoms: C_36  and  C_38
REMARK    8  A    between atoms: C_39  and  O_41
REMARK    9  A    between atoms: O_41  and  C_42
REMARK   10  A    between atoms: C_45  and  C_47
REMARK   11  A    between atoms: C_47  and  O_48
REMARK   12  A    between atoms: C_49  and  O_51
REMARK   13  A    between atoms: C_52  and  O_54
REMARK   14  A    between atoms: C_55  and  O_57
REMARK   15  A    between atoms: C_58  and  O_60
REMARK   16  A    between atoms: O_60  and  C_61
REMARK   17  A    between atoms: C_64  and  C_66
REMARK   18  A    between atoms: C_67  and  O_69
REMARK   19  A    between atoms: C_70  and  O_72
REMARK   20  A    between atoms: C_73  and  O_75
REMARK   21  A    between atoms: C_76  and  O_78
REMARK                            x       y       z     vdW  Elec       q    Type
REMARK                         _______ _______ _______ _____ _____    ______ ____
ROOT
ATOM      1  C   UNL     1      -1.942  -1.471  -2.001  1.00  0.00    +0.000 C 
ATOM      2  O   UNL     1      -2.024  -0.297  -2.811  1.00  0.00    +0.000 OA
ATOM      3  C   UNL     1      -2.490   0.857  -2.099  1.00  0.00    +0.000 C 
ATOM      4  C   UNL     1      -2.469   2.020  -3.085  1.00  0.00    +0.000 C 
ATOM      5  C   UNL     1      -3.889   0.631  -1.495  1.00  0.00    +0.000 C 
ATOM      6  C   UNL     1      -3.840  -0.607  -0.579  1.00  0.00    +0.000 C 
ATOM      7  C   UNL     1      -3.314  -1.813  -1.375  1.00  0.00    +0.000 C 
ENDROOT
BRANCH   7   8
ATOM      8  O   UNL     1      -4.265  -2.166  -2.398  1.00  0.00    +0.000 OA
ATOM      9  H   UNL     1      -3.942  -2.971  -2.836  1.00  0.00    +0.000 HD
ENDBRANCH   7   8
BRANCH   6  10
ATOM     10  O   UNL     1      -5.179  -0.840  -0.082  1.00  0.00    +0.000 OA
BRANCH  10  11
ATOM     11  C   UNL     1      -5.203  -1.403   1.239  1.00  0.00    +0.000 C 
ATOM     12  O   UNL     1      -4.658  -2.723   1.239  1.00  0.00    +0.000 OA
ATOM     13  C   UNL     1      -5.652  -3.736   1.094  1.00  0.00    +0.000 C 
ATOM     14  C   UNL     1      -4.940  -5.062   0.851  1.00  0.00    +0.000 C 
ATOM     15  C   UNL     1      -6.517  -3.791   2.369  1.00  0.00    +0.000 C 
ATOM     16  C   UNL     1      -6.933  -2.380   2.831  1.00  0.00    +0.000 C 
ATOM     17  C   UNL     1      -6.667  -1.331   1.750  1.00  0.00    +0.000 C 
BRANCH  17  18
ATOM     18  O   UNL     1      -6.962  -0.023   2.272  1.00  0.00    +0.000 OA
ATOM     19  H   UNL     1      -6.558  -0.006   3.163  1.00  0.00    +0.000 HD
ENDBRANCH  17  18
BRANCH  16  20
ATOM     20  O   UNL     1      -6.206  -1.987   4.012  1.00  0.00    +0.000 OA
ATOM     21  H   UNL     1      -6.453  -2.600   4.728  1.00  0.00    +0.000 HD
ENDBRANCH  16  20
BRANCH  15  22
ATOM     22  O   UNL     1      -7.675  -4.590   2.113  1.00  0.00    +0.000 OA
ATOM     23  H   UNL     1      -8.135  -4.737   2.958  1.00  0.00    +0.000 HD
ENDBRANCH  15  22
ENDBRANCH  10  11
ENDBRANCH   6  10
BRANCH   5  24
ATOM     24  O   UNL     1      -4.262   1.757  -0.686  1.00  0.00    +0.000 OA
BRANCH  24  25
ATOM     25  C   UNL     1      -5.293   2.574  -1.247  1.00  0.00    +0.000 C 
ATOM     26  O   UNL     1      -4.996   3.924  -0.874  1.00  0.00    +0.000 OA
ATOM     27  C   UNL     1      -5.958   4.862  -1.366  1.00  0.00    +0.000 C 
ATOM     28  C   UNL     1      -7.338   4.564  -0.762  1.00  0.00    +0.000 C 
ATOM     29  C   UNL     1      -7.742   3.136  -1.123  1.00  0.00    +0.000 C 
ATOM     30  C   UNL     1      -6.668   2.138  -0.692  1.00  0.00    +0.000 C 
BRANCH  28  31
ATOM     31  O   UNL     1      -8.330   5.479  -1.244  1.00  0.00    +0.000 OA
ATOM     32  H   UNL     1      -9.185   5.071  -0.988  1.00  0.00    +0.000 HD
ENDBRANCH  28  31
BRANCH  30  33
ATOM     33  O   UNL     1      -7.076   0.847  -1.172  1.00  0.00    +0.000 OA
ATOM     34  H   UNL     1      -6.453   0.201  -0.772  1.00  0.00    +0.000 HD
ENDBRANCH  30  33
BRANCH  29  35
ATOM     35  O   UNL     1      -8.997   2.835  -0.491  1.00  0.00    +0.000 OA
ATOM     36  H   UNL     1      -9.079   1.860  -0.552  1.00  0.00    +0.000 HD
ENDBRANCH  29  35
BRANCH  27  37
ATOM     37  C   UNL     1      -5.497   6.284  -1.015  1.00  0.00    +0.000 C 
BRANCH  37  38
ATOM     38  O   UNL     1      -6.305   7.277  -1.641  1.00  0.00    +0.000 OA
ATOM     39  H   UNL     1      -7.238   6.989  -1.536  1.00  0.00    +0.000 HD
ENDBRANCH  37  38
ENDBRANCH  27  37
ENDBRANCH  24  25
ENDBRANCH   5  24
BRANCH   1  40
ATOM     40  O   UNL     1      -0.967  -1.347  -0.969  1.00  0.00    +0.000 OA
BRANCH  40  41
ATOM     41  C   UNL     1       0.373  -1.564  -1.409  1.00  0.00    +0.000 C 
ATOM     42  C   UNL     1       1.163  -1.956  -0.193  1.00  0.00    +0.000 C 
ATOM     43  C   UNL     1       2.326  -1.396   0.197  1.00  0.00    +0.000 C 
ATOM     44  C   UNL     1       3.111  -2.029   1.324  1.00  0.00    +0.000 C 
ATOM     45  C   UNL     1       4.150  -1.119   1.971  1.00  0.00    +0.000 C 
ATOM     46  C   UNL     1       5.038  -0.347   0.967  1.00  0.00    +0.000 C 
ATOM     47  C   UNL     1       4.514  -0.425  -0.493  1.00  0.00    +0.000 C 
ATOM     48  C   UNL     1       5.343   0.524  -1.372  1.00  0.00    +0.000 C 
ATOM     49  C   UNL     1       6.824   0.138  -1.329  1.00  0.00    +0.000 C 
ATOM     50  C   UNL     1       7.441   0.134   0.102  1.00  0.00    +0.000 C 
ATOM     51  C   UNL     1       7.643   1.600   0.538  1.00  0.00    +0.000 C 
ATOM     52  C   UNL     1       8.778  -0.689   0.071  1.00  0.00    +0.000 C 
ATOM     53  C   UNL     1       8.308  -2.157   0.188  1.00  0.00    +0.000 C 
ATOM     54  C   UNL     1       6.901  -2.150   0.796  1.00  0.00    +0.000 C 
ATOM     55  C   UNL     1       6.548  -0.681   1.085  1.00  0.00    +0.000 C 
ATOM     56  C   UNL     1       2.962  -0.229  -0.562  1.00  0.00    +0.000 C 
ATOM     57  C   UNL     1       2.518   1.108   0.079  1.00  0.00    +0.000 C 
ATOM     58  C   UNL     1       2.465  -0.260  -2.037  1.00  0.00    +0.000 C 
ATOM     59  C   UNL     1       0.941  -0.345  -2.142  1.00  0.00    +0.000 C 
BRANCH  52  60
ATOM     60  C   UNL     1       9.858  -0.307   1.078  1.00  0.00    +0.000 A 
ATOM     61  C   UNL     1      10.866   0.638   0.647  1.00  0.00    +0.000 A 
ATOM     62  C   UNL     1      11.859   1.006   1.465  1.00  0.00    +0.000 A 
ATOM     63  C   UNL     1      11.963   0.458   2.829  1.00  0.00    +0.000 A 
ATOM     64  O   UNL     1      12.876   0.810   3.568  1.00  0.00    +0.000 OA
ATOM     65  O   UNL     1      11.009  -0.445   3.210  1.00  0.00    +0.000 OA
ATOM     66  C   UNL     1       9.986  -0.802   2.317  1.00  0.00    +0.000 A 
ENDBRANCH  52  60
BRANCH  55  67
ATOM     67  O   UNL     1       6.949  -0.438   2.440  1.00  0.00    +0.000 OA
ATOM     68  H   UNL     1       6.653   0.453   2.698  1.00  0.00    +0.000 HD
ENDBRANCH  55  67
ENDBRANCH  40  41
ENDBRANCH   1  40
TORSDOF 17
