REMARK  Name = SANCDB_00880_minRM1.pdb
AUTHORGENERATED BY OPEN BABEL 2.3.2
REMARK  5 active torsions:
REMARK  status: ('A' for Active; 'I' for Inactive)
REMARK    1  A    between atoms: C_1  and  C_2
REMARK    2  A    between atoms: C_5  and  C_13
REMARK    3  A    between atoms: C_8  and  C_12
REMARK    4  A    between atoms: C_13  and  C_14
REMARK    5  A    between atoms: C_13  and  C_15
REMARK                            x       y       z     vdW  Elec       q    Type
REMARK                         _______ _______ _______ _____ _____    ______ ____
ROOT
ATOM      1  C   UNL     1      -2.289  -3.350  -0.052  1.00  0.00    +0.000 C 
ATOM      2  C   UNL     1      -1.956  -1.888  -0.079  1.00  0.00    +0.000 A 
ATOM      3  C   UNL     1      -0.620  -1.464  -0.091  1.00  0.00    +0.000 A 
ATOM      4  C   UNL     1      -0.243  -0.095  -0.088  1.00  0.00    +0.000 A 
ATOM      5  C   UNL     1       1.119   0.344  -0.121  1.00  0.00    +0.000 A 
ATOM      6  C   UNL     1       1.393   1.720  -0.059  1.00  0.00    +0.000 A 
ATOM      7  C   UNL     1       0.369   2.658  -0.010  1.00  0.00    +0.000 A 
ATOM      8  C   UNL     1      -0.969   2.254  -0.009  1.00  0.00    +0.000 A 
ATOM      9  C   UNL     1      -1.288   0.873  -0.041  1.00  0.00    +0.000 A 
ATOM     10  C   UNL     1      -2.628   0.423  -0.017  1.00  0.00    +0.000 A 
ATOM     11  C   UNL     1      -2.959  -0.931  -0.032  1.00  0.00    +0.000 A 
ATOM     12  C   UNL     1      -2.031   3.324   0.041  1.00  0.00    +0.000 C 
ENDROOT
BRANCH   5  13
ATOM     13  C   UNL     1       2.288  -0.644  -0.183  1.00  0.00    +0.000 C 
ATOM     14  C   UNL     1       2.704  -1.061   1.230  1.00  0.00    +0.000 C 
ATOM     15  C   UNL     1       3.513  -0.144  -0.964  1.00  0.00    +0.000 C 
ENDBRANCH   5  13
TORSDOF 1
