REMARK  Name = /srv/my_project/app/compsite/backup/Dave/CORINA_stuff/newPDBs/SANC00423.pdb
AUTHORGENERATED BY OPEN BABEL 2.3.2
REMARK  29 active torsions:
REMARK  status: ('A' for Active; 'I' for Inactive)
REMARK    1  A    between atoms: C_1  and  C_2
REMARK    2  A    between atoms: C_2  and  C_3
REMARK    3  A    between atoms: C_3  and  C_4
REMARK    4  A    between atoms: C_4  and  C_5
REMARK    5  A    between atoms: C_5  and  C_6
REMARK    6  A    between atoms: C_6  and  C_7
REMARK    7  A    between atoms: C_7  and  C_8
REMARK    8  A    between atoms: C_8  and  C_9
REMARK    9  A    between atoms: C_9  and  C_10
REMARK   10  A    between atoms: C_10  and  C_11
REMARK   11  A    between atoms: C_11  and  C_12
REMARK   12  A    between atoms: C_12  and  C_13
REMARK   13  A    between atoms: C_13  and  C_14
REMARK   14  A    between atoms: C_14  and  O_16
REMARK   15  A    between atoms: O_16  and  C_17
REMARK   16  A    between atoms: C_21  and  N_27
REMARK   17  A    between atoms: C_28  and  C_30
REMARK   18  A    between atoms: C_30  and  C_32
REMARK   19  A    between atoms: C_30  and  O_46
REMARK   20  A    between atoms: C_32  and  C_34
REMARK   21  A    between atoms: C_32  and  O_45
REMARK   22  A    between atoms: C_34  and  C_36
REMARK   23  A    between atoms: C_34  and  O_44
REMARK   24  A    between atoms: C_36  and  C_38
REMARK   25  A    between atoms: C_36  and  O_43
REMARK   26  A    between atoms: C_39  and  C_40
REMARK   27  A    between atoms: C_40  and  C_41
REMARK   28  A    between atoms: C_40  and  C_42
REMARK   29  A    between atoms: O_46  and  C_47
REMARK                            x       y       z     vdW  Elec       q    Type
REMARK                         _______ _______ _______ _____ _____    ______ ____
ROOT
ATOM      1  C   UNL     1      -1.362   0.169   1.638  1.00  0.00    +0.000 C 
ATOM      2  C   UNL     1      -2.398   0.986   0.860  1.00  0.00    +0.000 C 
ATOM      3  C   UNL     1      -2.033   1.302  -0.593  1.00  0.00    +0.000 C 
ATOM      4  C   UNL     1      -1.911   0.096  -1.533  1.00  0.00    +0.000 C 
ATOM      5  C   UNL     1      -0.588  -0.650  -1.318  1.00  0.00    +0.000 C 
ATOM      6  O   UNL     1       0.294  -0.674  -2.177  1.00  0.00    +0.000 OA
ATOM      7  N   UNL     1      -0.375  -1.304  -0.140  1.00  0.00    +0.000 N 
ATOM      8  C   UNL     1      -1.179  -1.248   1.068  1.00  0.00    +0.000 C 
ATOM      9  H   UNL     1       0.546  -1.725  -0.077  1.00  0.00    +0.000 HD
ENDROOT
BRANCH   4  10
ATOM     10  N   UNL     1      -3.032  -0.840  -1.456  1.00  0.00    +0.000 N 
ATOM     11  C   UNL     1      -4.292  -0.503  -1.915  1.00  0.00    +0.000 C 
ATOM     12  O   UNL     1      -4.576   0.625  -2.306  1.00  0.00    +0.000 OA
ATOM     13  H   UNL     1      -2.800  -1.827  -1.399  1.00  0.00    +0.000 HD
BRANCH  11  14
ATOM     14  C   UNL     1      -5.307  -1.671  -1.885  1.00  0.00    +0.000 C 
BRANCH  14  15
ATOM     15  O   UNL     1      -6.491  -1.463  -2.654  1.00  0.00    +0.000 OA
ATOM     16  C   UNL     1      -6.257  -1.514  -4.056  1.00  0.00    +0.000 C 
ENDBRANCH  14  15
BRANCH  14  17
ATOM     17  C   UNL     1      -5.679  -1.953  -0.413  1.00  0.00    +0.000 C 
BRANCH  17  18
ATOM     18  O   UNL     1      -5.705  -3.388  -0.209  1.00  0.00    +0.000 OA
ATOM     19  H   UNL     1      -6.249  -3.516   0.597  1.00  0.00    +0.000 HD
ENDBRANCH  17  18
BRANCH  17  20
ATOM     20  C   UNL     1      -7.039  -1.385   0.049  1.00  0.00    +0.000 C 
BRANCH  20  21
ATOM     21  O   UNL     1      -7.181  -1.804   1.435  1.00  0.00    +0.000 OA
ATOM     22  H   UNL     1      -6.759  -1.087   1.953  1.00  0.00    +0.000 HD
ENDBRANCH  20  21
BRANCH  20  23
ATOM     23  C   UNL     1      -7.127   0.154  -0.037  1.00  0.00    +0.000 C 
BRANCH  23  24
ATOM     24  O   UNL     1      -6.181   0.700   0.891  1.00  0.00    +0.000 OA
ATOM     25  H   UNL     1      -6.211   1.665   0.750  1.00  0.00    +0.000 HD
ENDBRANCH  23  24
BRANCH  23  26
ATOM     26  C   UNL     1      -8.478   0.678   0.368  1.00  0.00    +0.000 C 
ATOM     27  C   UNL     1      -9.249   1.450  -0.417  1.00  0.00    +0.000 C 
BRANCH  27  28
ATOM     28  C   UNL     1     -10.615   2.015  -0.092  1.00  0.00    +0.000 C 
ATOM     29  C   UNL     1     -11.094   1.794   1.345  1.00  0.00    +0.000 C 
ATOM     30  C   UNL     1     -11.647   1.458  -1.075  1.00  0.00    +0.000 C 
ENDBRANCH  27  28
ENDBRANCH  23  26
ENDBRANCH  20  23
ENDBRANCH  17  20
ENDBRANCH  14  17
ENDBRANCH  11  14
ENDBRANCH   4  10
BRANCH   1  31
ATOM     31  O   UNL     1      -0.123   0.908   1.640  1.00  0.00    +0.000 OA
BRANCH  31  32
ATOM     32  C   UNL     1       0.806   0.521   2.555  1.00  0.00    +0.000 C 
ATOM     33  O   UNL     1       0.647  -0.369   3.379  1.00  0.00    +0.000 OA
BRANCH  32  34
ATOM     34  C   UNL     1       2.054   1.358   2.415  1.00  0.00    +0.000 C 
BRANCH  34  35
ATOM     35  C   UNL     1       3.327   0.529   2.578  1.00  0.00    +0.000 C 
BRANCH  35  36
ATOM     36  C   UNL     1       3.543  -0.437   1.408  1.00  0.00    +0.000 C 
BRANCH  36  37
ATOM     37  C   UNL     1       4.770  -1.337   1.581  1.00  0.00    +0.000 C 
BRANCH  37  38
ATOM     38  C   UNL     1       6.095  -0.572   1.566  1.00  0.00    +0.000 C 
BRANCH  38  39
ATOM     39  C   UNL     1       7.287  -1.532   1.614  1.00  0.00    +0.000 C 
BRANCH  39  40
ATOM     40  C   UNL     1       8.639  -0.822   1.722  1.00  0.00    +0.000 C 
BRANCH  40  41
ATOM     41  C   UNL     1       8.983   0.143   0.582  1.00  0.00    +0.000 C 
BRANCH  41  42
ATOM     42  C   UNL     1       9.023  -0.530  -0.793  1.00  0.00    +0.000 C 
BRANCH  42  43
ATOM     43  C   UNL     1       9.457   0.419  -1.917  1.00  0.00    +0.000 C 
BRANCH  43  44
ATOM     44  C   UNL     1      10.935   0.310  -2.308  1.00  0.00    +0.000 C 
BRANCH  44  46
ATOM     45  C   UNL     1      11.854   2.227  -0.902  1.00  0.00    +0.000 C 
ATOM     46  C   UNL     1      11.949   0.750  -1.252  1.00  0.00    +0.000 C 
ENDBRANCH  44  46
ENDBRANCH  43  44
ENDBRANCH  42  43
ENDBRANCH  41  42
ENDBRANCH  40  41
ENDBRANCH  39  40
ENDBRANCH  38  39
ENDBRANCH  37  38
ENDBRANCH  36  37
ENDBRANCH  35  36
ENDBRANCH  34  35
ENDBRANCH  32  34
ENDBRANCH  31  32
ENDBRANCH   1  31
TORSDOF 25
