REMARK  Name = /srv/my_project/app/compsite/backup/Dave/CORINA_stuff/newPDBs/SANC00320.pdb
AUTHORGENERATED BY OPEN BABEL 2.3.2
REMARK  5 active torsions:
REMARK  status: ('A' for Active; 'I' for Inactive)
REMARK    1  A    between atoms: C_4  and  C_6
REMARK    2  A    between atoms: C_9  and  O_10
REMARK    3  A    between atoms: C_11  and  O_12
REMARK    4  A    between atoms: C_17  and  O_18
REMARK    5  A    between atoms: C_20  and  O_21
REMARK                            x       y       z     vdW  Elec       q    Type
REMARK                         _______ _______ _______ _____ _____    ______ ____
ROOT
ATOM      1  O   UNL     1       2.012  -2.307  -2.000  1.00  0.00    +0.000 OA
ATOM      2  C   UNL     1       1.516  -1.519  -1.199  1.00  0.00    +0.000 C 
ATOM      3  C   UNL     1       0.035  -1.349  -1.029  1.00  0.00    +0.000 C 
ATOM      4  C   UNL     1      -0.231   0.089  -0.606  1.00  0.00    +0.000 C 
ATOM      5  O   UNL     1       0.434   0.391   0.633  1.00  0.00    +0.000 OA
ATOM      6  C   UNL     1       1.786   0.167   0.582  1.00  0.00    +0.000 A 
ATOM      7  C   UNL     1       2.566   0.876   1.496  1.00  0.00    +0.000 A 
ATOM      8  C   UNL     1       3.948   0.700   1.492  1.00  0.00    +0.000 A 
ATOM      9  C   UNL     1       4.557  -0.178   0.600  1.00  0.00    +0.000 A 
ATOM     10  C   UNL     1       3.773  -0.900  -0.295  1.00  0.00    +0.000 A 
ATOM     11  C   UNL     1       2.385  -0.734  -0.302  1.00  0.00    +0.000 A 
ENDROOT
BRANCH   4  12
ATOM     12  C   UNL     1      -1.720   0.329  -0.433  1.00  0.00    +0.000 A 
ATOM     13  C   UNL     1      -2.462   0.904  -1.478  1.00  0.00    +0.000 A 
ATOM     14  C   UNL     1      -3.839   1.111  -1.347  1.00  0.00    +0.000 A 
ATOM     15  C   UNL     1      -4.483   0.740  -0.170  1.00  0.00    +0.000 A 
ATOM     16  C   UNL     1      -3.760   0.164   0.873  1.00  0.00    +0.000 A 
ATOM     17  C   UNL     1      -2.387  -0.046   0.746  1.00  0.00    +0.000 A 
BRANCH  15  18
ATOM     18  O   UNL     1      -5.828   0.935  -0.027  1.00  0.00    +0.000 OA
ATOM     19  H   UNL     1      -6.178   1.343  -0.833  1.00  0.00    +0.000 HD
ENDBRANCH  15  18
BRANCH  16  20
ATOM     20  O   UNL     1      -4.410  -0.196   2.020  1.00  0.00    +0.000 OA
ATOM     21  H   UNL     1      -3.767  -0.546   2.655  1.00  0.00    +0.000 HD
ENDBRANCH  16  20
ENDBRANCH   4  12
BRANCH   8  22
ATOM     22  O   UNL     1       4.750   1.381   2.360  1.00  0.00    +0.000 OA
ATOM     23  H   UNL     1       4.202   1.951   2.924  1.00  0.00    +0.000 HD
ENDBRANCH   8  22
BRANCH  10  24
ATOM     24  O   UNL     1       4.425  -1.761  -1.135  1.00  0.00    +0.000 OA
ATOM     25  H   UNL     1       3.755  -2.214  -1.695  1.00  0.00    +0.000 HD
ENDBRANCH  10  24
TORSDOF 5
