REMARK  Name = SANCDB_00986_minRM1.pdb
AUTHORGENERATED BY OPEN BABEL 2.3.2
REMARK  4 active torsions:
REMARK  status: ('A' for Active; 'I' for Inactive)
REMARK    1  A    between atoms: C_2  and  O_18
REMARK    2  A    between atoms: C_6  and  O_7
REMARK    3  A    between atoms: C_11  and  O_17
REMARK    4  A    between atoms: C_13  and  O_16
REMARK                            x       y       z     vdW  Elec       q    Type
REMARK                         _______ _______ _______ _____ _____    ______ ____
ROOT
ATOM      1  C   UNL     1      -3.527   1.081   0.083  1.00  0.00    +0.000 A 
ATOM      2  C   UNL     1      -3.631  -0.286   0.327  1.00  0.00    +0.000 A 
ATOM      3  C   UNL     1      -2.497  -1.095   0.385  1.00  0.00    +0.000 A 
ATOM      4  C   UNL     1      -1.241  -0.517   0.195  1.00  0.00    +0.000 A 
ATOM      5  C   UNL     1      -1.123   0.851  -0.051  1.00  0.00    +0.000 A 
ATOM      6  C   UNL     1      -2.269   1.643  -0.105  1.00  0.00    +0.000 A 
ATOM      7  O   UNL     1       0.092   1.460  -0.243  1.00  0.00    +0.000 OA
ATOM      8  C   UNL     1       1.185   0.632  -0.179  1.00  0.00    +0.000 A 
ATOM      9  C   UNL     1       2.441   1.205  -0.369  1.00  0.00    +0.000 A 
ATOM     10  C   UNL     1       3.576   0.400  -0.311  1.00  0.00    +0.000 A 
ATOM     11  C   UNL     1       3.476  -0.967  -0.068  1.00  0.00    +0.000 A 
ATOM     12  C   UNL     1       2.216  -1.526   0.120  1.00  0.00    +0.000 A 
ATOM     13  C   UNL     1       1.068  -0.735   0.066  1.00  0.00    +0.000 A 
ATOM     14  O   UNL     1      -0.147  -1.345   0.259  1.00  0.00    +0.000 OA
ENDROOT
BRANCH   6  15
ATOM     15  O   UNL     1      -2.192   2.986  -0.343  1.00  0.00    +0.000 OA
ATOM     16  H   UNL     1      -1.247   3.201  -0.448  1.00  0.00    +0.000 HD
ENDBRANCH   6  15
BRANCH  12  17
ATOM     17  O   UNL     1       2.142  -2.870   0.358  1.00  0.00    +0.000 OA
ATOM     18  H   UNL     1       1.196  -3.086   0.463  1.00  0.00    +0.000 HD
ENDBRANCH  12  17
BRANCH  10  19
ATOM     19  O   UNL     1       4.787   0.999  -0.502  1.00  0.00    +0.000 OA
ATOM     20  H   UNL     1       5.483   0.324  -0.436  1.00  0.00    +0.000 HD
ENDBRANCH  10  19
BRANCH   2  21
ATOM     21  O   UNL     1      -4.880  -0.803   0.506  1.00  0.00    +0.000 OA
ATOM     22  H   UNL     1      -4.810  -1.759   0.666  1.00  0.00    +0.000 HD
ENDBRANCH   2  21
TORSDOF 4
