REMARK  Name = SANCDB_00871_minRM1.pdb
AUTHORGENERATED BY OPEN BABEL 2.3.2
REMARK  2 active torsions:
REMARK  status: ('A' for Active; 'I' for Inactive)
REMARK    1  A    between atoms: C_1  and  C_2
REMARK    2  A    between atoms: C_4  and  O_18
REMARK                            x       y       z     vdW  Elec       q    Type
REMARK                         _______ _______ _______ _____ _____    ______ ____
ROOT
ATOM      1  C   UNL     1       0.317  -1.163  -1.602  1.00  0.00    +0.000 C 
ATOM      2  C   UNL     1       0.650  -0.922  -0.106  1.00  0.00    +0.000 C 
ATOM      3  C   UNL     1       2.110  -1.447   0.128  1.00  0.00    +0.000 C 
ATOM      4  C   UNL     1       3.121  -0.377   0.549  1.00  0.00    +0.000 C 
ATOM      5  C   UNL     1       2.997   0.906  -0.285  1.00  0.00    +0.000 C 
ATOM      6  C   UNL     1       1.574   1.413  -0.429  1.00  0.00    +0.000 C 
ATOM      7  C   UNL     1       1.341   2.513  -1.167  1.00  0.00    +0.000 C 
ATOM      8  C   UNL     1       0.512   0.584   0.282  1.00  0.00    +0.000 C 
ATOM      9  C   UNL     1      -0.938   1.078   0.124  1.00  0.00    +0.000 C 
ATOM     10  C   UNL     1      -1.923   0.252   0.962  1.00  0.00    +0.000 C 
ATOM     11  C   UNL     1      -1.761  -1.252   0.830  1.00  0.00    +0.000 C 
ATOM     12  C   UNL     1      -0.318  -1.750   0.779  1.00  0.00    +0.000 C 
ATOM     13  O   UNL     1      -2.495  -1.622  -0.344  1.00  0.00    +0.000 OA
ATOM     14  C   UNL     1      -3.541  -0.758  -0.495  1.00  0.00    +0.000 C 
ATOM     15  O   UNL     1      -4.474  -0.890  -1.263  1.00  0.00    +0.000 OA
ATOM     16  C   UNL     1      -3.307   0.380   0.430  1.00  0.00    +0.000 C 
ATOM     17  C   UNL     1      -4.232   1.304   0.710  1.00  0.00    +0.000 C 
ENDROOT
BRANCH   4  18
ATOM     18  O   UNL     1       2.947  -0.103   1.942  1.00  0.00    +0.000 OA
ATOM     19  H   UNL     1       3.576   0.598   2.183  1.00  0.00    +0.000 HD
ENDBRANCH   4  18
TORSDOF 1
