REMARK  Name = /srv/my_project/app/compsite/backup/Dave/CORINA_stuff/newPDBs/SANC00267.pdb
AUTHORGENERATED BY OPEN BABEL 2.3.2
REMARK  5 active torsions:
REMARK  status: ('A' for Active; 'I' for Inactive)
REMARK    1  A    between atoms: C_1  and  O_2
REMARK    2  A    between atoms: O_2  and  C_3
REMARK    3  A    between atoms: C_3  and  C_4
REMARK    4  A    between atoms: C_7  and  C_8
REMARK    5  A    between atoms: C_9  and  O_10
REMARK                            x       y       z     vdW  Elec       q    Type
REMARK                         _______ _______ _______ _____ _____    ______ ____
ROOT
ATOM      1  C   UNL     1       2.071   0.181  -0.874  1.00  0.00    +0.000 A 
ATOM      2  C   UNL     1       1.429   1.309  -0.395  1.00  0.00    +0.000 A 
ATOM      3  C   UNL     1       0.073   0.975  -0.103  1.00  0.00    +0.000 A 
ATOM      4  C   UNL     1      -1.054   1.692   0.408  1.00  0.00    +0.000 A 
ATOM      5  C   UNL     1      -0.961   3.149   0.773  1.00  0.00    +0.000 C 
ATOM      6  C   UNL     1      -2.276   0.983   0.563  1.00  0.00    +0.000 A 
ATOM      7  C   UNL     1      -2.375  -0.357   0.231  1.00  0.00    +0.000 A 
ATOM      8  C   UNL     1      -3.567  -1.257   0.327  1.00  0.00    +0.000 C 
ATOM      9  C   UNL     1      -3.063  -2.622  -0.181  1.00  0.00    +0.000 C 
ATOM     10  C   UNL     1      -1.612  -2.399  -0.529  1.00  0.00    +0.000 C 
ATOM     11  O   UNL     1      -0.826  -3.221  -0.969  1.00  0.00    +0.000 OA
ATOM     12  C   UNL     1      -1.268  -1.021  -0.259  1.00  0.00    +0.000 A 
ATOM     13  C   UNL     1      -0.059  -0.376  -0.428  1.00  0.00    +0.000 A 
ATOM     14  N   UNL     1       1.148  -0.835  -0.891  1.00  0.00    +0.000 N 
ATOM     15  H   UNL     1       1.307  -1.790  -1.192  1.00  0.00    +0.000 HD
ENDROOT
BRANCH   6  16
ATOM     16  O   UNL     1      -3.413   1.573   1.042  1.00  0.00    +0.000 OA
ATOM     17  H   UNL     1      -3.237   2.505   1.244  1.00  0.00    +0.000 HD
ENDBRANCH   6  16
BRANCH   1  18
ATOM     18  C   UNL     1       3.474  -0.023  -1.326  1.00  0.00    +0.000 C 
BRANCH  18  20
ATOM     19  C   UNL     1       4.567  -0.503   0.725  1.00  0.00    +0.000 C 
ATOM     20  O   UNL     1       4.348   0.453  -0.304  1.00  0.00    +0.000 OA
ENDBRANCH  18  20
ENDBRANCH   1  18
TORSDOF 3
