REMARK  Name = /srv/my_project/app/compsite/backup/Dave/CORINA_stuff/newPDBs/SANC00349.pdb
AUTHORGENERATED BY OPEN BABEL 2.3.2
REMARK  3 active torsions:
REMARK  status: ('A' for Active; 'I' for Inactive)
REMARK    1  A    between atoms: C_8  and  C_9
REMARK    2  A    between atoms: C_11  and  O_12
REMARK    3  A    between atoms: C_16  and  C_17
REMARK                            x       y       z     vdW  Elec       q    Type
REMARK                         _______ _______ _______ _____ _____    ______ ____
ROOT
ATOM      1  C   UNL     1      -0.545   0.925   0.035  1.00  0.00    +0.000 C 
ATOM      2  C   UNL     1      -1.463   2.072  -0.412  1.00  0.00    +0.000 C 
ATOM      3  C   UNL     1      -2.679   2.166   0.464  1.00  0.00    +0.000 C 
ATOM      4  C   UNL     1      -3.099   1.184   1.275  1.00  0.00    +0.000 C 
ATOM      5  C   UNL     1      -2.405  -0.134   1.305  1.00  0.00    +0.000 C 
ATOM      6  O   UNL     1      -2.755  -0.967   2.137  1.00  0.00    +0.000 OA
ATOM      7  C   UNL     1      -1.333  -0.406   0.241  1.00  0.00    +0.000 C 
ATOM      8  C   UNL     1      -2.077  -0.879  -1.025  1.00  0.00    +0.000 C 
ATOM      9  C   UNL     1      -0.358  -1.504   0.756  1.00  0.00    +0.000 C 
ATOM     10  C   UNL     1       0.892  -1.656  -0.116  1.00  0.00    +0.000 C 
ATOM     11  O   UNL     1       1.889  -2.413   0.548  1.00  0.00    +0.000 OA
ATOM     12  C   UNL     1       3.028  -1.672   0.618  1.00  0.00    +0.000 C 
ATOM     13  O   UNL     1       4.085  -2.046   1.092  1.00  0.00    +0.000 OA
ATOM     14  C   UNL     1       2.789  -0.339   0.042  1.00  0.00    +0.000 C 
ATOM     15  C   UNL     1       3.828   0.713   0.063  1.00  0.00    +0.000 C 
ATOM     16  C   UNL     1       1.521  -0.341  -0.371  1.00  0.00    +0.000 C 
ATOM     17  C   UNL     1       0.672   0.768  -0.894  1.00  0.00    +0.000 C 
ENDROOT
BRANCH  10  18
ATOM     18  O   UNL     1       0.560  -2.284  -1.338  1.00  0.00    +0.000 OA
ATOM     19  H   UNL     1       1.347  -2.228  -1.904  1.00  0.00    +0.000 HD
ENDBRANCH  10  18
TORSDOF 1
