REMARK  Name = /srv/my_project/app/compsite/backup/Dave/CORINA_stuff/newPDBs/SANC00531.pdb
AUTHORGENERATED BY OPEN BABEL 2.3.2
REMARK  9 active torsions:
REMARK  status: ('A' for Active; 'I' for Inactive)
REMARK    1  A    between atoms: C_1  and  O_2
REMARK    2  A    between atoms: O_2  and  C_3
REMARK    3  A    between atoms: C_4  and  O_5
REMARK    4  A    between atoms: C_6  and  C_7
REMARK    5  A    between atoms: C_7  and  C_8
REMARK    6  A    between atoms: C_9  and  C_10
REMARK    7  A    between atoms: C_9  and  C_11
REMARK    8  A    between atoms: C_12  and  O_13
REMARK    9  A    between atoms: C_18  and  C_20
REMARK                            x       y       z     vdW  Elec       q    Type
REMARK                         _______ _______ _______ _____ _____    ______ ____
ROOT
ATOM      1  C   UNL     1      -0.084   1.596   0.626  1.00  0.00    +0.000 A 
ATOM      2  C   UNL     1      -1.458   1.774   0.366  1.00  0.00    +0.000 A 
ATOM      3  C   UNL     1      -2.182   0.944  -0.500  1.00  0.00    +0.000 A 
ATOM      4  C   UNL     1      -1.494  -0.111  -1.112  1.00  0.00    +0.000 A 
ATOM      5  C   UNL     1      -0.123  -0.309  -0.868  1.00  0.00    +0.000 A 
ATOM      6  C   UNL     1       0.594  -1.452  -1.481  1.00  0.00    +0.000 C 
ATOM      7  O   UNL     1      -0.003  -2.228  -2.224  1.00  0.00    +0.000 OA
ATOM      8  C   UNL     1       2.034  -1.644  -1.112  1.00  0.00    +0.000 C 
ATOM      9  C   UNL     1       2.627  -0.272  -0.854  1.00  0.00    +0.000 C 
ATOM     10  O   UNL     1       1.928   0.369   0.222  1.00  0.00    +0.000 OA
ATOM     11  C   UNL     1       0.591   0.552  -0.016  1.00  0.00    +0.000 A 
ENDROOT
BRANCH   9  12
ATOM     12  C   UNL     1       4.093  -0.376  -0.480  1.00  0.00    +0.000 A 
ATOM     13  C   UNL     1       5.083  -0.098  -1.436  1.00  0.00    +0.000 A 
ATOM     14  C   UNL     1       6.436  -0.209  -1.110  1.00  0.00    +0.000 A 
ATOM     15  C   UNL     1       6.817  -0.602   0.171  1.00  0.00    +0.000 A 
ATOM     16  C   UNL     1       5.846  -0.886   1.128  1.00  0.00    +0.000 A 
ATOM     17  C   UNL     1       4.492  -0.776   0.805  1.00  0.00    +0.000 A 
ENDBRANCH   9  12
BRANCH   1  19
ATOM     18  C   UNL     1       1.768   2.427   1.921  1.00  0.00    +0.000 C 
ATOM     19  O   UNL     1       0.414   2.529   1.502  1.00  0.00    +0.000 OA
ENDBRANCH   1  19
BRANCH   2  20
ATOM     20  O   UNL     1      -2.112   2.809   0.992  1.00  0.00    +0.000 OA
ATOM     21  H   UNL     1      -1.433   3.250   1.541  1.00  0.00    +0.000 HD
ENDBRANCH   2  20
BRANCH   4  22
ATOM     22  O   UNL     1      -2.202  -0.934  -1.952  1.00  0.00    +0.000 OA
ATOM     23  H   UNL     1      -1.609  -1.651  -2.270  1.00  0.00    +0.000 HD
ENDBRANCH   4  22
BRANCH   3  24
ATOM     24  C   UNL     1      -3.664   1.156  -0.723  1.00  0.00    +0.000 C 
BRANCH  24  25
ATOM     25  C   UNL     1      -4.503   0.518   0.355  1.00  0.00    +0.000 C 
ATOM     26  C   UNL     1      -5.336  -0.538   0.257  1.00  0.00    +0.000 C 
ATOM     27  C   UNL     1      -6.102  -1.022   1.459  1.00  0.00    +0.000 C 
ATOM     28  C   UNL     1      -5.585  -1.333  -0.995  1.00  0.00    +0.000 C 
ENDBRANCH  24  25
ENDBRANCH   3  24
TORSDOF 6
