REMARK  Name = /srv/my_project/app/compsite/backup/Dave/CORINA_stuff/newPDBs/SANC00653.pdb
AUTHORGENERATED BY OPEN BABEL 2.3.2
REMARK  5 active torsions:
REMARK  status: ('A' for Active; 'I' for Inactive)
REMARK    1  A    between atoms: C_1  and  O_2
REMARK    2  A    between atoms: O_2  and  C_3
REMARK    3  A    between atoms: C_15  and  O_26
REMARK    4  A    between atoms: C_23  and  O_25
REMARK    5  A    between atoms: O_26  and  C_27
REMARK                            x       y       z     vdW  Elec       q    Type
REMARK                         _______ _______ _______ _____ _____    ______ ____
ROOT
ATOM      1  C   UNL     1       2.703  -0.644   0.273  1.00  0.00    +0.000 A 
ATOM      2  C   UNL     1       1.312  -0.680   0.020  1.00  0.00    +0.000 A 
ATOM      3  C   UNL     1       0.623   0.469  -0.490  1.00  0.00    +0.000 A 
ATOM      4  C   UNL     1       1.350   1.633  -0.770  1.00  0.00    +0.000 A 
ATOM      5  C   UNL     1       2.706   1.632  -0.518  1.00  0.00    +0.000 A 
ATOM      6  C   UNL     1       3.372   0.535  -0.012  1.00  0.00    +0.000 A 
ATOM      7  O   UNL     1       4.703   0.796   0.137  1.00  0.00    +0.000 OA
ATOM      8  C   UNL     1       4.788   2.161  -0.309  1.00  0.00    +0.000 C 
ATOM      9  O   UNL     1       3.528   2.695  -0.745  1.00  0.00    +0.000 OA
ATOM     10  C   UNL     1      -0.891   0.327  -0.777  1.00  0.00    +0.000 C 
ATOM     11  C   UNL     1      -1.658   1.635  -0.838  1.00  0.00    +0.000 C 
ATOM     12  C   UNL     1      -2.804   1.849  -0.168  1.00  0.00    +0.000 C 
ATOM     13  C   UNL     1      -3.508   0.811   0.660  1.00  0.00    +0.000 C 
ATOM     14  C   UNL     1      -2.998  -0.610   0.376  1.00  0.00    +0.000 C 
ATOM     15  C   UNL     1      -1.464  -0.617   0.315  1.00  0.00    +0.000 C 
ATOM     16  N   UNL     1      -0.903  -1.941  -0.065  1.00  0.00    +0.000 NA
ATOM     17  C   UNL     1       0.527  -1.950   0.344  1.00  0.00    +0.000 C 
ATOM     18  C   UNL     1      -1.015  -1.987  -1.542  1.00  0.00    +0.000 C 
ATOM     19  C   UNL     1      -1.018  -0.536  -2.067  1.00  0.00    +0.000 C 
ENDROOT
BRANCH   1  21
ATOM     20  C   UNL     1       4.615  -1.791   1.129  1.00  0.00    +0.000 C 
ATOM     21  O   UNL     1       3.239  -1.797   0.774  1.00  0.00    +0.000 OA
ENDBRANCH   1  21
BRANCH  19  22
ATOM     22  O   UNL     1      -2.223  -0.279  -2.798  1.00  0.00    +0.000 OA
ATOM     23  H   UNL     1      -2.232  -0.878  -3.563  1.00  0.00    +0.000 HD
ENDBRANCH  19  22
BRANCH  13  24
ATOM     24  O   UNL     1      -3.285   1.176   2.024  1.00  0.00    +0.000 OA
ATOM     25  C   UNL     1      -4.339   0.771   2.886  1.00  0.00    +0.000 C 
ENDBRANCH  13  24
TORSDOF 3
