REMARK  Name = /srv/my_project/app/compsite/backup/Dave/CORINA_stuff/newPDBs/SANC00420.pdb
AUTHORGENERATED BY OPEN BABEL 2.3.2
REMARK  12 active torsions:
REMARK  status: ('A' for Active; 'I' for Inactive)
REMARK    1  A    between atoms: C_1  and  C_2
REMARK    2  A    between atoms: C_9  and  O_10
REMARK    3  A    between atoms: C_15  and  C_16
REMARK    4  A    between atoms: C_15  and  C_17
REMARK    5  A    between atoms: C_18  and  C_19
REMARK    6  A    between atoms: C_18  and  C_20
REMARK    7  A    between atoms: C_20  and  C_21
REMARK    8  A    between atoms: C_21  and  C_22
REMARK    9  A    between atoms: C_22  and  C_23
REMARK   10  A    between atoms: C_24  and  C_26
REMARK   11  A    between atoms: C_35  and  C_36
REMARK   12  A    between atoms: C_35  and  C_37
REMARK                            x       y       z     vdW  Elec       q    Type
REMARK                         _______ _______ _______ _____ _____    ______ ____
ROOT
ATOM      1  C   UNL     1      -2.202   2.327  -2.555  1.00  0.00    +0.000 C 
ATOM      2  C   UNL     1      -1.937   2.051  -1.063  1.00  0.00    +0.000 C 
ATOM      3  C   UNL     1      -2.844   2.961  -0.224  1.00  0.00    +0.000 C 
ATOM      4  C   UNL     1      -4.317   2.571  -0.283  1.00  0.00    +0.000 C 
ATOM      5  C   UNL     1      -4.553   1.069  -0.457  1.00  0.00    +0.000 C 
ATOM      6  O   UNL     1      -5.831   0.760   0.145  1.00  0.00    +0.000 OA
ATOM      7  C   UNL     1      -5.715  -0.338   1.060  1.00  0.00    +0.000 C 
ATOM      8  C   UNL     1      -4.825   0.151   2.208  1.00  0.00    +0.000 C 
ATOM      9  C   UNL     1      -3.401   0.344   1.676  1.00  0.00    +0.000 C 
ATOM     10  C   UNL     1      -3.400   0.202   0.126  1.00  0.00    +0.000 C 
ATOM     11  O   UNL     1      -3.720  -1.203  -0.106  1.00  0.00    +0.000 OA
ATOM     12  C   UNL     1      -5.057  -1.555   0.333  1.00  0.00    +0.000 C 
ATOM     13  C   UNL     1      -4.920  -2.781   1.246  1.00  0.00    +0.000 C 
ATOM     14  C   UNL     1      -5.853  -1.974  -0.913  1.00  0.00    +0.000 C 
ATOM     15  C   UNL     1      -2.018   0.525  -0.617  1.00  0.00    +0.000 C 
ATOM     16  C   UNL     1      -1.876  -0.413  -1.850  1.00  0.00    +0.000 C 
ENDROOT
BRANCH   7  17
ATOM     17  O   UNL     1      -7.009  -0.640   1.540  1.00  0.00    +0.000 OA
ATOM     18  H   UNL     1      -7.362   0.211   1.850  1.00  0.00    +0.000 HD
ENDBRANCH   7  17
BRANCH  15  19
ATOM     19  C   UNL     1      -0.821   0.206   0.355  1.00  0.00    +0.000 C 
BRANCH  19  20
ATOM     20  C   UNL     1       0.590   0.181  -0.277  1.00  0.00    +0.000 C 
BRANCH  20  21
ATOM     21  C   UNL     1       1.792   0.076   0.726  1.00  0.00    +0.000 C 
ATOM     22  C   UNL     1       1.759   1.367   1.607  1.00  0.00    +0.000 C 
ATOM     23  C   UNL     1       1.655  -1.162   1.665  1.00  0.00    +0.000 C 
ATOM     24  C   UNL     1       1.502  -2.500   0.926  1.00  0.00    +0.000 C 
ATOM     25  C   UNL     1       2.821  -1.225   2.657  1.00  0.00    +0.000 C 
ATOM     26  C   UNL     1       4.161  -1.417   1.975  1.00  0.00    +0.000 C 
ATOM     27  C   UNL     1       4.383  -0.631   0.683  1.00  0.00    +0.000 C 
ATOM     28  O   UNL     1       5.004  -1.564  -0.241  1.00  0.00    +0.000 OA
ATOM     29  C   UNL     1       5.669  -0.690  -1.156  1.00  0.00    +0.000 C 
ATOM     30  C   UNL     1       4.583  -0.198  -2.121  1.00  0.00    +0.000 C 
ATOM     31  C   UNL     1       3.171  -0.298  -1.519  1.00  0.00    +0.000 C 
ATOM     32  C   UNL     1       3.181   0.091  -0.026  1.00  0.00    +0.000 C 
ATOM     33  C   UNL     1       6.301   0.311  -0.175  1.00  0.00    +0.000 C 
ATOM     34  C   UNL     1       7.598  -0.261   0.417  1.00  0.00    +0.000 C 
ATOM     35  C   UNL     1       6.564   1.703  -0.737  1.00  0.00    +0.000 C 
ATOM     36  O   UNL     1       5.362   0.408   0.916  1.00  0.00    +0.000 OA
ENDBRANCH  20  21
ENDBRANCH  19  20
ENDBRANCH  15  19
TORSDOF 4
