REMARK  Name = /srv/my_project/app/compsite/backup/Dave/CORINA_stuff/newPDBs/SANC00136.pdb
AUTHORGENERATED BY OPEN BABEL 2.3.2
REMARK  2 active torsions:
REMARK  status: ('A' for Active; 'I' for Inactive)
REMARK    1  A    between atoms: C_14  and  C_15
REMARK    2  A    between atoms: C_18  and  O_19
REMARK                            x       y       z     vdW  Elec       q    Type
REMARK                         _______ _______ _______ _____ _____    ______ ____
ROOT
ATOM      1  O   UNL     1      -3.165   3.348   0.589  1.00  0.00    +0.000 OA
ATOM      2  C   UNL     1      -2.549   2.311   0.384  1.00  0.00    +0.000 C 
ATOM      3  C   UNL     1      -3.148   1.044   0.027  1.00  0.00    +0.000 A 
ATOM      4  N   UNL     1      -4.475   0.711  -0.106  1.00  0.00    +0.000 N 
ATOM      5  H   UNL     1      -5.248   1.354   0.020  1.00  0.00    +0.000 HD
ATOM      6  C   UNL     1      -4.585  -0.644  -0.378  1.00  0.00    +0.000 A 
ATOM      7  C   UNL     1      -3.312  -1.167  -0.441  1.00  0.00    +0.000 A 
ATOM      8  C   UNL     1      -2.726  -2.518  -0.613  1.00  0.00    +0.000 C 
ATOM      9  C   UNL     1      -1.258  -2.406  -1.113  1.00  0.00    +0.000 C 
ATOM     10  N   UNL     1      -0.415  -1.317  -0.525  1.00  0.00    +0.000 NA
ATOM     11  C   UNL     1      -1.001  -0.219  -0.192  1.00  0.00    +0.000 C 
ATOM     12  C   UNL     1      -2.434  -0.105  -0.226  1.00  0.00    +0.000 A 
ATOM     13  C   UNL     1      -0.342   1.008   0.240  1.00  0.00    +0.000 A 
ATOM     14  C   UNL     1       1.026   1.347   0.464  1.00  0.00    +0.000 A 
ATOM     15  C   UNL     1       1.052   2.682   0.834  1.00  0.00    +0.000 A 
ATOM     16  N   UNL     1      -0.231   3.166   0.842  1.00  0.00    +0.000 N 
ATOM     17  H   UNL     1      -0.508   4.111   1.078  1.00  0.00    +0.000 HD
ATOM     18  C   UNL     1      -1.097   2.168   0.485  1.00  0.00    +0.000 A 
ENDROOT
BRANCH  14  19
ATOM     19  C   UNL     1       2.235   0.544   0.378  1.00  0.00    +0.000 A 
ATOM     20  C   UNL     1       2.318  -0.686   1.042  1.00  0.00    +0.000 A 
ATOM     21  C   UNL     1       3.486  -1.449   0.971  1.00  0.00    +0.000 A 
ATOM     22  C   UNL     1       4.571  -0.983   0.238  1.00  0.00    +0.000 A 
ATOM     23  C   UNL     1       4.509   0.237  -0.428  1.00  0.00    +0.000 A 
ATOM     24  C   UNL     1       3.340   1.000  -0.356  1.00  0.00    +0.000 A 
BRANCH  22  25
ATOM     25  O   UNL     1       5.691  -1.759   0.195  1.00  0.00    +0.000 OA
ATOM     26  H   UNL     1       6.347  -1.322  -0.372  1.00  0.00    +0.000 HD
ENDBRANCH  22  25
ENDBRANCH  14  19
TORSDOF 2
