REMARK  Name = /srv/my_project/app/compsite/backup/Dave/CORINA_stuff/newPDBs/SANC00285.pdb
AUTHORGENERATED BY OPEN BABEL 2.3.2
REMARK  21 active torsions:
REMARK  status: ('A' for Active; 'I' for Inactive)
REMARK    1  A    between atoms: C_4  and  C_5
REMARK    2  A    between atoms: C_5  and  O_6
REMARK    3  A    between atoms: O_6  and  C_7
REMARK    4  A    between atoms: C_7  and  C_8
REMARK    5  A    between atoms: C_11  and  O_12
REMARK    6  A    between atoms: C_15  and  C_16
REMARK    7  A    between atoms: C_20  and  O_21
REMARK    8  A    between atoms: C_22  and  C_24
REMARK    9  A    between atoms: C_26  and  O_27
REMARK   10  A    between atoms: O_27  and  C_28
REMARK   11  A    between atoms: C_28  and  C_30
REMARK   12  A    between atoms: C_30  and  C_31
REMARK   13  A    between atoms: C_30  and  C_32
REMARK   14  A    between atoms: C_32  and  C_33
REMARK   15  A    between atoms: C_34  and  C_35
REMARK   16  A    between atoms: C_34  and  C_36
REMARK   17  A    between atoms: C_36  and  O_37
REMARK   18  A    between atoms: O_37  and  C_38
REMARK   19  A    between atoms: C_38  and  C_40
REMARK   20  A    between atoms: C_40  and  C_41
REMARK   21  A    between atoms: C_42  and  C_43
REMARK                            x       y       z     vdW  Elec       q    Type
REMARK                         _______ _______ _______ _____ _____    ______ ____
ROOT
ATOM      1  C   UNL     1      -0.751  -0.358   0.602  1.00  0.00    +0.000 C 
ATOM      2  C   UNL     1      -1.106  -1.754   0.135  1.00  0.00    +0.000 C 
ATOM      3  C   UNL     1      -2.174  -2.490   0.514  1.00  0.00    +0.000 C 
ATOM      4  C   UNL     1      -3.328  -2.035   1.408  1.00  0.00    +0.000 C 
ATOM      5  C   UNL     1      -3.480  -0.529   1.677  1.00  0.00    +0.000 C 
ATOM      6  C   UNL     1      -4.904  -0.131   2.034  1.00  0.00    +0.000 C 
ATOM      7  O   UNL     1      -5.602  -0.699   2.863  1.00  0.00    +0.000 OA
ATOM      8  C   UNL     1      -5.312   1.096   1.322  1.00  0.00    +0.000 C 
ATOM      9  C   UNL     1      -6.576   1.810   1.596  1.00  0.00    +0.000 C 
ATOM     10  C   UNL     1      -4.339   1.350   0.440  1.00  0.00    +0.000 C 
ATOM     11  C   UNL     1      -3.240   0.314   0.408  1.00  0.00    +0.000 C 
ATOM     12  C   UNL     1      -1.768   0.783   0.207  1.00  0.00    +0.000 C 
ATOM     13  C   UNL     1      -1.391   2.124   0.955  1.00  0.00    +0.000 C 
ATOM     14  C   UNL     1      -1.558   3.386   0.090  1.00  0.00    +0.000 C 
ATOM     15  C   UNL     1       0.041   2.120   1.565  1.00  0.00    +0.000 C 
ATOM     16  C   UNL     1       1.056   1.442   0.669  1.00  0.00    +0.000 C 
ATOM     17  C   UNL     1       1.857   0.180   1.040  1.00  0.00    +0.000 C 
ATOM     18  C   UNL     1       1.843  -0.341   2.458  1.00  0.00    +0.000 C 
ATOM     19  C   UNL     1       0.626   0.089   0.152  1.00  0.00    +0.000 C 
ENDROOT
BRANCH   5  20
ATOM     20  O   UNL     1      -2.690  -0.121   2.799  1.00  0.00    +0.000 OA
ATOM     21  H   UNL     1      -3.063  -0.568   3.584  1.00  0.00    +0.000 HD
ENDBRANCH   5  20
BRANCH  12  22
ATOM     22  O   UNL     1      -1.649   1.032  -1.220  1.00  0.00    +0.000 OA
ATOM     23  H   UNL     1      -1.552   0.172  -1.669  1.00  0.00    +0.000 HD
ENDBRANCH  12  22
BRANCH   3  24
ATOM     24  C   UNL     1      -2.299  -3.921   0.030  1.00  0.00    +0.000 C 
BRANCH  24  25
ATOM     25  O   UNL     1      -3.369  -4.006  -0.918  1.00  0.00    +0.000 OA
BRANCH  25  26
ATOM     26  C   UNL     1      -3.001  -3.920  -2.225  1.00  0.00    +0.000 C 
ATOM     27  C   UNL     1      -4.213  -4.015  -3.100  1.00  0.00    +0.000 C 
ATOM     28  O   UNL     1      -1.860  -3.780  -2.642  1.00  0.00    +0.000 OA
ENDBRANCH  25  26
ENDBRANCH  24  25
ENDBRANCH   3  24
BRANCH  16  29
ATOM     29  O   UNL     1       1.598   2.314  -0.349  1.00  0.00    +0.000 OA
BRANCH  29  30
ATOM     30  C   UNL     1       2.567   3.203   0.021  1.00  0.00    +0.000 C 
ATOM     31  O   UNL     1       3.069   3.270   1.136  1.00  0.00    +0.000 OA
BRANCH  30  32
ATOM     32  C   UNL     1       2.947   4.071  -1.166  1.00  0.00    +0.000 C 
ATOM     33  C   UNL     1       3.501   5.407  -0.674  1.00  0.00    +0.000 C 
BRANCH  32  34
ATOM     34  C   UNL     1       3.937   3.301  -2.051  1.00  0.00    +0.000 C 
ATOM     35  C   UNL     1       4.283   4.026  -3.343  1.00  0.00    +0.000 C 
ENDBRANCH  32  34
ENDBRANCH  30  32
ENDBRANCH  29  30
ENDBRANCH  16  29
BRANCH  17  36
ATOM     36  C   UNL     1       3.190  -0.079   0.353  1.00  0.00    +0.000 C 
BRANCH  36  37
ATOM     37  O   UNL     1       3.367  -1.496   0.193  1.00  0.00    +0.000 OA
BRANCH  37  38
ATOM     38  C   UNL     1       3.189  -1.986  -1.056  1.00  0.00    +0.000 C 
ATOM     39  O   UNL     1       2.894  -1.346  -2.054  1.00  0.00    +0.000 OA
BRANCH  38  40
ATOM     40  C   UNL     1       3.290  -3.471  -1.049  1.00  0.00    +0.000 C 
ATOM     41  C   UNL     1       2.249  -4.151  -1.891  1.00  0.00    +0.000 C 
ATOM     42  C   UNL     1       4.230  -4.162  -0.374  1.00  0.00    +0.000 C 
ATOM     43  C   UNL     1       5.374  -3.619   0.424  1.00  0.00    +0.000 C 
ENDBRANCH  38  40
ENDBRANCH  37  38
ENDBRANCH  36  37
ENDBRANCH  17  36
TORSDOF 13
