REMARK  Name = CC%14C(O)C%13(OCC%10%12C(=O)C=C9C8(C)Cc7nc6CC5CCC4C3=CC2OC1(OC(C)(CO)CC1O)C(...
REMARK  16 active torsions:
REMARK  status: ('A' for Active; 'I' for Inactive)
REMARK    1  A    between atoms: C_1  and  C_48
REMARK    2  A    between atoms: C_2  and  C_49
REMARK    3  A    between atoms: C_3  and  C_50
REMARK    4  A    between atoms: C_4  and  C_59
REMARK    5  A    between atoms: C_5  and  C_59
REMARK    6  A    between atoms: C_6  and  C_60
REMARK    7  A    between atoms: C_7  and  C_61
REMARK    8  A    between atoms: C_8  and  C_62
REMARK    9  A    between atoms: C_9  and  C_64
REMARK   10  A    between atoms: O_11  and  C_19
REMARK   11  A    between atoms: O_12  and  C_46
REMARK   12  A    between atoms: O_13  and  C_47
REMARK   13  A    between atoms: O_14  and  C_54
REMARK   14  A    between atoms: O_15  and  C_63
REMARK   15  A    between atoms: O_16  and  C_65
REMARK   16  A    between atoms: C_19  and  C_60
REMARK                            x       y       z     vdW  Elec       q    Type
REMARK                         _______ _______ _______ _____ _____    ______ ____
ROOT
ATOM      1  C   UNL     1     -14.055  -0.520   1.018  1.00  0.00    +0.000 C 
ATOM      2  C   UNL     1     -10.974  -1.740   2.468  1.00  0.00    +0.000 C 
ATOM      3  C   UNL     1      10.681   0.610  -2.124  1.00  0.00    +0.000 C 
ATOM      4  C   UNL     1     -13.323  -1.903  -1.439  1.00  0.00    +0.000 C 
ATOM      5  C   UNL     1     -12.159   0.114  -2.304  1.00  0.00    +0.000 C 
ATOM      6  C   UNL     1      12.213  -2.749   2.020  1.00  0.00    +0.000 C 
ATOM      7  C   UNL     1      -3.637   0.895  -1.909  1.00  0.00    +0.000 C 
ATOM      8  C   UNL     1       3.486   3.022  -0.904  1.00  0.00    +0.000 C 
ATOM      9  C   UNL     1       8.192   3.341  -1.339  1.00  0.00    +0.000 C 
ATOM     10  O   UNL     1      -7.406   0.862   1.877  1.00  0.00    +0.000 OA
ATOM     11  C   UNL     1      -5.624   0.423   0.456  1.00  0.00    +0.000 C 
ATOM     12  C   UNL     1       8.301   1.775   1.877  1.00  0.00    +0.000 C 
ATOM     13  C   UNL     1       4.004   3.114   2.204  1.00  0.00    +0.000 C 
ATOM     14  C   UNL     1      -3.603  -2.217  -2.308  1.00  0.00    +0.000 C 
ATOM     15  C   UNL     1       5.496   2.799   2.254  1.00  0.00    +0.000 C 
ATOM     16  C   UNL     1      -5.109  -2.232  -2.035  1.00  0.00    +0.000 C 
ATOM     17  C   UNL     1      -8.674  -0.123  -0.831  1.00  0.00    +0.000 C 
ATOM     18  C   UNL     1      -1.369  -1.173  -1.798  1.00  0.00    +0.000 C 
ATOM     19  C   UNL     1       1.724   2.297   1.497  1.00  0.00    +0.000 C 
ATOM     20  C   UNL     1      -2.627   0.440   0.373  1.00  0.00    +0.000 C 
ATOM     21  C   UNL     1       3.002   0.569  -0.579  1.00  0.00    +0.000 C 
ATOM     22  C   UNL     1       5.959   1.168  -1.288  1.00  0.00    +0.000 C 
ATOM     23  C   UNL     1      -8.939  -3.031   0.712  1.00  0.00    +0.000 C 
ATOM     24  C   UNL     1      11.676  -2.464  -0.444  1.00  0.00    +0.000 C 
ATOM     25  N   UNL     1      -0.414   1.321   0.874  1.00  0.00    +0.000 NA
ATOM     26  N   UNL     1       0.779  -0.256  -1.128  1.00  0.00    +0.000 NA
ATOM     27  O   UNL     1      -9.748   0.628  -0.271  1.00  0.00    +0.000 OA
ATOM     28  O   UNL     1       9.621  -0.142   1.327  1.00  0.00    +0.000 OA
ATOM     29  O   UNL     1      -7.703  -2.779  -1.387  1.00  0.00    +0.000 OA
ATOM     30  O   UNL     1     -11.265  -1.177  -0.459  1.00  0.00    +0.000 OA
ATOM     31  O   UNL     1      11.879  -0.595   0.991  1.00  0.00    +0.000 OA
ATOM     32  C   UNL     1      -6.992   0.168   0.949  1.00  0.00    +0.000 C 
ATOM     33  C   UNL     1       7.550   2.212   0.854  1.00  0.00    +0.000 C 
ATOM     34  C   UNL     1      -4.934  -0.478  -0.267  1.00  0.00    +0.000 C 
ATOM     35  C   UNL     1      -0.556  -0.292  -0.895  1.00  0.00    +0.000 A 
ATOM     36  C   UNL     1       0.924   1.347   0.652  1.00  0.00    +0.000 A 
ATOM     37  C   UNL     1      -1.149   0.496   0.087  1.00  0.00    +0.000 A 
ATOM     38  C   UNL     1       1.514   0.575  -0.346  1.00  0.00    +0.000 A 
ATOM     39  C   UNL     1       7.486   0.915  -1.217  1.00  0.00    +0.000 C 
ATOM     40  C   UNL     1      10.298  -1.881  -0.252  1.00  0.00    +0.000 C 
ATOM     41  C   UNL     1     -13.120   0.209   0.051  1.00  0.00    +0.000 C 
ATOM     42  C   UNL     1     -10.045  -0.846   1.642  1.00  0.00    +0.000 C 
ATOM     43  C   UNL     1      10.710   0.768  -0.614  1.00  0.00    +0.000 C 
ATOM     44  C   UNL     1       9.630   1.277   1.431  1.00  0.00    +0.000 C 
ATOM     45  C   UNL     1      -2.787  -1.441  -1.268  1.00  0.00    +0.000 C 
ATOM     46  C   UNL     1       3.234   2.018   1.456  1.00  0.00    +0.000 C 
ATOM     47  C   UNL     1     -11.903   0.765   0.792  1.00  0.00    +0.000 C 
ATOM     48  C   UNL     1      -7.690  -3.287  -0.064  1.00  0.00    +0.000 C 
ATOM     49  C   UNL     1       6.089   2.587   0.852  1.00  0.00    +0.000 C 
ATOM     50  C   UNL     1      -8.746  -1.604   1.272  1.00  0.00    +0.000 C 
ATOM     51  C   UNL     1       5.306   1.482   0.085  1.00  0.00    +0.000 C 
ATOM     52  C   UNL     1     -12.490  -0.686  -1.032  1.00  0.00    +0.000 C 
ATOM     53  C   UNL     1      12.431  -1.910   0.756  1.00  0.00    +0.000 C 
ATOM     54  C   UNL     1      -3.502  -0.152  -0.773  1.00  0.00    +0.000 C 
ATOM     55  C   UNL     1       3.762   1.795   0.004  1.00  0.00    +0.000 C 
ATOM     56  C   UNL     1      -5.516  -1.848  -0.594  1.00  0.00    +0.000 C 
ATOM     57  C   UNL     1       8.269   2.048  -0.491  1.00  0.00    +0.000 C 
ATOM     58  C   UNL     1       9.760   1.804  -0.003  1.00  0.00    +0.000 C 
ATOM     59  C   UNL     1      -7.848  -0.864   0.229  1.00  0.00    +0.000 C 
ATOM     60  C   UNL     1      10.596  -0.474   0.309  1.00  0.00    +0.000 C 
ATOM     61  C   UNL     1     -10.722  -0.183   0.419  1.00  0.00    +0.000 C 
ATOM     62  C   UNL     1      -7.020  -1.976  -0.395  1.00  0.00    +0.000 C 
ENDROOT
BRANCH  39  63
ATOM     63  O   UNL     1       7.679  -0.371  -0.629  1.00  0.00    +0.000 OA
ATOM     64  H   UNL     1       7.537  -0.289   0.336  1.00  0.00    +0.000 HD
ENDBRANCH  39  63
BRANCH  40  65
ATOM     65  O   UNL     1       9.550  -1.972  -1.450  1.00  0.00    +0.000 OA
ATOM     66  H   UNL     1       8.694  -1.522  -1.269  1.00  0.00    +0.000 HD
ENDBRANCH  40  65
BRANCH  47  67
ATOM     67  O   UNL     1     -11.681   2.112   0.339  1.00  0.00    +0.000 OA
ATOM     68  H   UNL     1     -10.758   2.120   0.005  1.00  0.00    +0.000 HD
ENDBRANCH  47  67
BRANCH  56  69
ATOM     69  O   UNL     1      -4.892  -2.745   0.329  1.00  0.00    +0.000 OA
ATOM     70  H   UNL     1      -4.941  -3.637  -0.054  1.00  0.00    +0.000 HD
ENDBRANCH  56  69
BRANCH  58  71
ATOM     71  O   UNL     1      10.476   3.063   0.030  1.00  0.00    +0.000 OA
ATOM     72  H   UNL     1      10.037   3.637   0.685  1.00  0.00    +0.000 HD
ENDBRANCH  58  71
BRANCH  53  73
ATOM     73  C   UNL     1      13.938  -1.762   0.493  1.00  0.00    +0.000 C 
BRANCH  73  74
ATOM     74  O   UNL     1      14.181  -0.868  -0.593  1.00  0.00    +0.000 OA
ATOM     75  H   UNL     1      13.731  -0.037  -0.353  1.00  0.00    +0.000 HD
ENDBRANCH  73  74
ENDBRANCH  53  73
TORSDOF 7
