REMARK  Name = /srv/my_project/app/compsite/backup/Dave/CORINA_stuff/newPDBs/SANC00208.pdb
AUTHORGENERATED BY OPEN BABEL 2.3.2
REMARK  10 active torsions:
REMARK  status: ('A' for Active; 'I' for Inactive)
REMARK    1  A    between atoms: C_2  and  C_3
REMARK    2  A    between atoms: C_2  and  C_4
REMARK    3  A    between atoms: C_4  and  C_6
REMARK    4  A    between atoms: C_6  and  C_7
REMARK    5  A    between atoms: C_7  and  C_9
REMARK    6  A    between atoms: C_9  and  C_10
REMARK    7  A    between atoms: C_11  and  C_12
REMARK    8  A    between atoms: N_13  and  O_14
REMARK    9  A    between atoms: O_14  and  C_15
REMARK   10  A    between atoms: C_15  and  C_16
REMARK                            x       y       z     vdW  Elec       q    Type
REMARK                         _______ _______ _______ _____ _____    ______ ____
ROOT
ATOM      1  C   UNL     1       0.319  -1.814  -0.211  1.00  0.00    +0.000 C 
ATOM      2  N   UNL     1       1.478  -1.714   0.349  1.00  0.00    +0.000 NA
ENDROOT
BRANCH   1   5
ATOM      3  C   UNL     1      -0.978   0.096   0.787  1.00  0.00    +0.000 C 
ATOM      4  C   UNL     1       0.204   1.040   0.789  1.00  0.00    +0.000 C 
ATOM      5  C   UNL     1      -0.908  -1.164   0.310  1.00  0.00    +0.000 C 
BRANCH   3   6
ATOM      6  C   UNL     1      -2.235   0.718   1.378  1.00  0.00    +0.000 C 
ATOM      7 BR   UNL     1      -3.382  -0.588   2.279  1.00  0.00    +0.000 Br
BRANCH   6   8
ATOM      8  C   UNL     1      -3.044   1.627   0.439  1.00  0.00    +0.000 C 
BRANCH   8   9
ATOM      9  C   UNL     1      -3.367   1.063  -0.953  1.00  0.00    +0.000 C 
ATOM     10 BR   UNL     1      -3.941   2.562  -2.109  1.00  0.00    +0.000 Br
BRANCH   9  12
ATOM     11  C   UNL     1      -4.165  -1.195  -1.636  1.00  0.00    +0.000 C 
ATOM     12  C   UNL     1      -4.429  -0.012  -1.050  1.00  0.00    +0.000 C 
ATOM     13  C   UNL     1      -5.801   0.261  -0.486  1.00  0.00    +0.000 C 
ENDBRANCH   9  12
ENDBRANCH   8   9
ENDBRANCH   6   8
ENDBRANCH   3   6
ENDBRANCH   1   5
BRANCH   2  14
ATOM     14  O   UNL     1       2.408  -2.469  -0.386  1.00  0.00    +0.000 OA
BRANCH  14  15
ATOM     15  C   UNL     1       3.704  -2.319   0.203  1.00  0.00    +0.000 C 
BRANCH  15  16
ATOM     16  C   UNL     1       4.285  -0.982  -0.151  1.00  0.00    +0.000 A 
ATOM     17  C   UNL     1       4.684  -0.703  -1.460  1.00  0.00    +0.000 A 
ATOM     18  F   UNL     1       4.594  -1.656  -2.398  1.00  0.00    +0.000 F 
ATOM     19  C   UNL     1       5.178   0.552  -1.808  1.00  0.00    +0.000 A 
ATOM     20  F   UNL     1       5.556   0.796  -3.071  1.00  0.00    +0.000 F 
ATOM     21  C   UNL     1       5.279   1.548  -0.848  1.00  0.00    +0.000 A 
ATOM     22  F   UNL     1       5.753   2.756  -1.180  1.00  0.00    +0.000 F 
ATOM     23  C   UNL     1       4.890   1.289   0.459  1.00  0.00    +0.000 A 
ATOM     24  F   UNL     1       4.989   2.247   1.390  1.00  0.00    +0.000 F 
ATOM     25  C   UNL     1       4.398   0.033   0.803  1.00  0.00    +0.000 A 
ATOM     26  F   UNL     1       4.034  -0.200   2.072  1.00  0.00    +0.000 F 
ENDBRANCH  15  16
ENDBRANCH  14  15
ENDBRANCH   2  14
TORSDOF 8
