REMARK  Name = SANCDB_00870_minRM1.pdb
AUTHORGENERATED BY OPEN BABEL 2.3.2
REMARK  12 active torsions:
REMARK  status: ('A' for Active; 'I' for Inactive)
REMARK    1  A    between atoms: C_1  and  C_2
REMARK    2  A    between atoms: C_2  and  C_3
REMARK    3  A    between atoms: C_2  and  C_9
REMARK    4  A    between atoms: C_3  and  C_4
REMARK    5  A    between atoms: C_4  and  C_5
REMARK    6  A    between atoms: C_6  and  C_7
REMARK    7  A    between atoms: C_6  and  C_8
REMARK    8  A    between atoms: C_12  and  C_31
REMARK    9  A    between atoms: C_13  and  C_30
REMARK   10  A    between atoms: C_25  and  O_29
REMARK   11  A    between atoms: C_26  and  C_27
REMARK   12  A    between atoms: C_26  and  C_28
REMARK                            x       y       z     vdW  Elec       q    Type
REMARK                         _______ _______ _______ _____ _____    ______ ____
ROOT
ATOM      1  C   UNL     1      -2.220  -0.191   0.228  1.00  0.00    +0.000 C 
ATOM      2  C   UNL     1      -2.119  -1.244   1.370  1.00  0.00    +0.000 C 
ATOM      3  C   UNL     1      -0.633  -1.410   1.726  1.00  0.00    +0.000 C 
ATOM      4  C   UNL     1       0.079  -0.241   1.023  1.00  0.00    +0.000 C 
ATOM      5  C   UNL     1      -0.751  -0.131  -0.309  1.00  0.00    +0.000 C 
ATOM      6  C   UNL     1      -0.341   1.162  -1.028  1.00  0.00    +0.000 C 
ATOM      7  C   UNL     1       1.153   1.516  -0.928  1.00  0.00    +0.000 C 
ATOM      8  C   UNL     1       2.103   0.429  -0.422  1.00  0.00    +0.000 C 
ATOM      9  C   UNL     1       1.568  -0.515   0.682  1.00  0.00    +0.000 C 
ATOM     10  C   UNL     1       2.497  -0.546   1.904  1.00  0.00    +0.000 C 
ATOM     11  C   UNL     1       3.915  -0.915   1.475  1.00  0.00    +0.000 C 
ATOM     12  C   UNL     1       4.534   0.223   0.650  1.00  0.00    +0.000 C 
ATOM     13  C   UNL     1       3.626   0.736  -0.469  1.00  0.00    +0.000 C 
ATOM     14  C   UNL     1       3.008  -0.230  -1.448  1.00  0.00    +0.000 C 
ATOM     15  C   UNL     1       4.103   2.071  -1.035  1.00  0.00    +0.000 C 
ATOM     16  C   UNL     1       5.614   2.273  -0.886  1.00  0.00    +0.000 C 
ATOM     17  C   UNL     1       6.381   0.956  -1.006  1.00  0.00    +0.000 C 
ATOM     18  C   UNL     1       5.999  -0.046   0.136  1.00  0.00    +0.000 C 
ATOM     19  C   UNL     1       6.968   0.196   1.323  1.00  0.00    +0.000 C 
ATOM     20  C   UNL     1       6.219  -1.499  -0.335  1.00  0.00    +0.000 C 
ATOM     21  C   UNL     1      -0.523  -1.318  -1.293  1.00  0.00    +0.000 C 
ATOM     22  C   UNL     1      -0.049   0.989   1.975  1.00  0.00    +0.000 C 
ENDROOT
BRANCH   1  24
ATOM     23  C   UNL     1      -3.483   0.545  -1.876  1.00  0.00    +0.000 C 
ATOM     24  C   UNL     1      -3.403  -0.488  -0.746  1.00  0.00    +0.000 C 
BRANCH  24  25
ATOM     25  C   UNL     1      -4.747  -0.526   0.035  1.00  0.00    +0.000 C 
BRANCH  25  26
ATOM     26  C   UNL     1      -5.941  -1.006  -0.799  1.00  0.00    +0.000 C 
BRANCH  26  27
ATOM     27  C   UNL     1      -7.161  -1.195   0.061  1.00  0.00    +0.000 C 
ATOM     28  C   UNL     1      -8.221  -0.372   0.178  1.00  0.00    +0.000 C 
ATOM     29  C   UNL     1      -8.364   0.955  -0.516  1.00  0.00    +0.000 C 
ATOM     30  C   UNL     1      -9.383  -0.735   1.066  1.00  0.00    +0.000 C 
ENDBRANCH  26  27
ENDBRANCH  25  26
ENDBRANCH  24  25
ENDBRANCH   1  24
BRANCH  17  31
ATOM     31  O   UNL     1       6.134   0.395  -2.297  1.00  0.00    +0.000 OA
ATOM     32  H   UNL     1       6.381   1.060  -2.961  1.00  0.00    +0.000 HD
ENDBRANCH  17  31
TORSDOF 5
