REMARK  Name = SANCDB_00848_minRM1.pdb
AUTHORGENERATED BY OPEN BABEL 2.3.2
REMARK  11 active torsions:
REMARK  status: ('A' for Active; 'I' for Inactive)
REMARK    1  A    between atoms: C_3  and  O_32
REMARK    2  A    between atoms: C_6  and  C_7
REMARK    3  A    between atoms: C_8  and  O_20
REMARK    4  A    between atoms: C_12  and  O_19
REMARK    5  A    between atoms: C_14  and  O_18
REMARK    6  A    between atoms: O_20  and  C_21
REMARK    7  A    between atoms: C_22  and  O_31
REMARK    8  A    between atoms: C_23  and  O_30
REMARK    9  A    between atoms: C_24  and  O_29
REMARK   10  A    between atoms: C_25  and  C_27
REMARK   11  A    between atoms: C_27  and  O_28
REMARK                            x       y       z     vdW  Elec       q    Type
REMARK                         _______ _______ _______ _____ _____    ______ ____
ROOT
ATOM      1  C   UNL     1      -1.849  -0.202  -0.098  1.00  0.00    +0.000 A 
ATOM      2  C   UNL     1      -0.651  -0.511  -0.629  1.00  0.00    +0.000 A 
ATOM      3  C   UNL     1      -0.352  -0.048  -2.013  1.00  0.00    +0.000 A 
ATOM      4  O   UNL     1       0.696  -0.322  -2.595  1.00  0.00    +0.000 OA
ATOM      5  C   UNL     1      -1.379   0.767  -2.676  1.00  0.00    +0.000 A 
ATOM      6  C   UNL     1      -1.202   1.265  -3.972  1.00  0.00    +0.000 A 
ATOM      7  C   UNL     1      -2.197   2.036  -4.567  1.00  0.00    +0.000 A 
ATOM      8  C   UNL     1      -3.368   2.306  -3.866  1.00  0.00    +0.000 A 
ATOM      9  C   UNL     1      -3.560   1.815  -2.578  1.00  0.00    +0.000 A 
ATOM     10  C   UNL     1      -2.558   1.042  -1.986  1.00  0.00    +0.000 A 
ATOM     11  O   UNL     1      -2.807   0.580  -0.719  1.00  0.00    +0.000 OA
ENDROOT
BRANCH   1  17
ATOM     12  C   UNL     1      -2.604   0.301   2.219  1.00  0.00    +0.000 A 
ATOM     13  C   UNL     1      -2.982  -0.106   3.500  1.00  0.00    +0.000 A 
ATOM     14  C   UNL     1      -3.013  -1.460   3.812  1.00  0.00    +0.000 A 
ATOM     15  C   UNL     1      -2.675  -2.418   2.862  1.00  0.00    +0.000 A 
ATOM     16  C   UNL     1      -2.297  -2.010   1.580  1.00  0.00    +0.000 A 
ATOM     17  C   UNL     1      -2.250  -0.647   1.249  1.00  0.00    +0.000 A 
BRANCH  14  18
ATOM     18  O   UNL     1      -3.388  -1.811   5.074  1.00  0.00    +0.000 OA
ATOM     19  H   UNL     1      -3.350  -2.778   5.155  1.00  0.00    +0.000 HD
ENDBRANCH  14  18
ENDBRANCH   1  17
BRANCH   8  20
ATOM     20  O   UNL     1      -4.318   3.064  -4.484  1.00  0.00    +0.000 OA
ATOM     21  H   UNL     1      -5.079   3.175  -3.890  1.00  0.00    +0.000 HD
ENDBRANCH   8  20
BRANCH   6  22
ATOM     22  O   UNL     1      -0.078   1.034  -4.717  1.00  0.00    +0.000 OA
ATOM     23  H   UNL     1       0.543   0.487  -4.187  1.00  0.00    +0.000 HD
ENDBRANCH   6  22
BRANCH   2  24
ATOM     24  O   UNL     1       0.292  -1.292   0.015  1.00  0.00    +0.000 OA
BRANCH  24  25
ATOM     25  C   UNL     1       1.275  -0.490   0.716  1.00  0.00    +0.000 C 
ATOM     26  C   UNL     1       2.377  -1.478   1.132  1.00  0.00    +0.000 C 
ATOM     27  C   UNL     1       3.517  -0.767   1.867  1.00  0.00    +0.000 C 
ATOM     28  C   UNL     1       3.686   0.695   1.435  1.00  0.00    +0.000 C 
ATOM     29  C   UNL     1       3.125   0.958   0.032  1.00  0.00    +0.000 C 
ATOM     30  O   UNL     1       1.742   0.591  -0.090  1.00  0.00    +0.000 OA
BRANCH  28  31
ATOM     31  O   UNL     1       2.958   1.510   2.373  1.00  0.00    +0.000 OA
ATOM     32  H   UNL     1       3.117   2.442   2.139  1.00  0.00    +0.000 HD
ENDBRANCH  28  31
BRANCH  27  33
ATOM     33  O   UNL     1       4.735  -1.488   1.623  1.00  0.00    +0.000 OA
ATOM     34  H   UNL     1       4.591  -2.381   1.992  1.00  0.00    +0.000 HD
ENDBRANCH  27  33
BRANCH  26  35
ATOM     35  O   UNL     1       1.875  -2.538   1.967  1.00  0.00    +0.000 OA
ATOM     36  H   UNL     1       1.073  -2.873   1.524  1.00  0.00    +0.000 HD
ENDBRANCH  26  35
BRANCH  29  37
ATOM     37  C   UNL     1       3.943   0.310  -1.095  1.00  0.00    +0.000 C 
BRANCH  37  38
ATOM     38  O   UNL     1       3.382   0.662  -2.360  1.00  0.00    +0.000 OA
ATOM     39  H   UNL     1       2.450   0.348  -2.345  1.00  0.00    +0.000 HD
ENDBRANCH  37  38
ENDBRANCH  29  37
ENDBRANCH  24  25
ENDBRANCH   2  24
TORSDOF 11
