REMARK  Name = /srv/my_project/app/compsite/backup/Dave/CORINA_stuff/newPDBs/SANC00275.pdb
AUTHORGENERATED BY OPEN BABEL 2.3.2
REMARK  8 active torsions:
REMARK  status: ('A' for Active; 'I' for Inactive)
REMARK    1  A    between atoms: C_2  and  C_3
REMARK    2  A    between atoms: C_3  and  C_4
REMARK    3  A    between atoms: C_3  and  C_6
REMARK    4  A    between atoms: C_6  and  C_9
REMARK    5  A    between atoms: C_9  and  C_10
REMARK    6  A    between atoms: C_10  and  C_12
REMARK    7  A    between atoms: C_12  and  C_13
REMARK    8  A    between atoms: C_12  and  C_14
REMARK                            x       y       z     vdW  Elec       q    Type
REMARK                         _______ _______ _______ _____ _____    ______ ____
ROOT
ATOM      1  C   UNL     1      -1.123  -0.455   0.827  1.00  0.00    +0.000 C 
ATOM      2 CL   UNL     1      -0.785  -2.125   1.431  1.00  0.00    +0.000 Cl
ENDROOT
BRANCH   1   3
ATOM      3  C   UNL     1      -2.245  -0.424  -0.267  1.00  0.00    +0.000 C 
ATOM      4  C   UNL     1      -3.549  -1.044   0.284  1.00  0.00    +0.000 C 
ATOM      5 CL   UNL     1      -1.805  -1.417  -1.714  1.00  0.00    +0.000 Cl
BRANCH   3   7
ATOM      6  C   UNL     1      -3.479   1.831  -0.478  1.00  0.00    +0.000 C 
ATOM      7  C   UNL     1      -2.469   0.999  -0.773  1.00  0.00    +0.000 C 
ENDBRANCH   3   7
ENDBRANCH   1   3
BRANCH   1   8
ATOM      8  C   UNL     1       0.221   0.277   0.581  1.00  0.00    +0.000 C 
BRANCH   8   9
ATOM      9  C   UNL     1       1.205  -0.332  -0.449  1.00  0.00    +0.000 C 
ATOM     10 CL   UNL     1       0.998   0.544  -2.020  1.00  0.00    +0.000 Cl
BRANCH   9  11
ATOM     11  C   UNL     1       2.708  -0.300  -0.012  1.00  0.00    +0.000 C 
ATOM     12  C   UNL     1       3.620  -0.949  -1.068  1.00  0.00    +0.000 C 
ATOM     13  C   UNL     1       3.218   1.115   0.299  1.00  0.00    +0.000 C 
ATOM     14 CL   UNL     1       2.908  -1.290   1.497  1.00  0.00    +0.000 Cl
ENDBRANCH   9  11
ENDBRANCH   8   9
ENDBRANCH   1   8
TORSDOF 5
