REMARK  Name = /srv/my_project/app/compsite/backup/Dave/CORINA_stuff/newPDBs/SANC00643.pdb
AUTHORGENERATED BY OPEN BABEL 2.3.2
REMARK  5 active torsions:
REMARK  status: ('A' for Active; 'I' for Inactive)
REMARK    1  A    between atoms: C_3  and  O_22
REMARK    2  A    between atoms: C_6  and  C_7
REMARK    3  A    between atoms: C_9  and  O_21
REMARK    4  A    between atoms: C_13  and  O_20
REMARK    5  A    between atoms: C_15  and  O_19
REMARK                            x       y       z     vdW  Elec       q    Type
REMARK                         _______ _______ _______ _____ _____    ______ ____
ROOT
ATOM      1  C   UNL     1       0.747  -0.761   1.363  1.00  0.00    +0.000 C 
ATOM      2  C   UNL     1       0.362  -2.057   0.612  1.00  0.00    +0.000 C 
ATOM      3  C   UNL     1      -0.477  -1.703  -0.610  1.00  0.00    +0.000 C 
ATOM      4  C   UNL     1      -1.596  -0.788  -0.206  1.00  0.00    +0.000 A 
ATOM      5  C   UNL     1      -2.731  -0.637  -1.012  1.00  0.00    +0.000 A 
ATOM      6  C   UNL     1      -3.778   0.206  -0.640  1.00  0.00    +0.000 A 
ATOM      7  C   UNL     1      -3.682   0.910   0.556  1.00  0.00    +0.000 A 
ATOM      8  C   UNL     1      -2.559   0.789   1.366  1.00  0.00    +0.000 A 
ATOM      9  C   UNL     1      -1.511  -0.047   0.980  1.00  0.00    +0.000 A 
ATOM     10  O   UNL     1      -0.434  -0.072   1.830  1.00  0.00    +0.000 OA
ENDROOT
BRANCH   1  16
ATOM     11  C   UNL     1       3.037  -0.259   0.384  1.00  0.00    +0.000 A 
ATOM     12  C   UNL     1       3.959   0.565  -0.269  1.00  0.00    +0.000 A 
ATOM     13  C   UNL     1       3.574   1.839  -0.666  1.00  0.00    +0.000 A 
ATOM     14  C   UNL     1       2.289   2.298  -0.416  1.00  0.00    +0.000 A 
ATOM     15  C   UNL     1       1.370   1.473   0.237  1.00  0.00    +0.000 A 
ATOM     16  C   UNL     1       1.722   0.174   0.639  1.00  0.00    +0.000 A 
BRANCH  13  17
ATOM     17  O   UNL     1       4.439   2.676  -1.305  1.00  0.00    +0.000 OA
ATOM     18  H   UNL     1       5.291   2.220  -1.403  1.00  0.00    +0.000 HD
ENDBRANCH  13  17
ENDBRANCH   1  16
BRANCH   7  19
ATOM     19  O   UNL     1      -4.676   1.746   0.973  1.00  0.00    +0.000 OA
ATOM     20  H   UNL     1      -5.391   1.745   0.316  1.00  0.00    +0.000 HD
ENDBRANCH   7  19
BRANCH   5  21
ATOM     21  O   UNL     1      -2.799  -1.343  -2.181  1.00  0.00    +0.000 OA
ATOM     22  H   UNL     1      -3.609  -1.096  -2.657  1.00  0.00    +0.000 HD
ENDBRANCH   5  21
BRANCH   2  23
ATOM     23  O   UNL     1       1.482  -2.870   0.257  1.00  0.00    +0.000 OA
ATOM     24  H   UNL     1       1.142  -3.622  -0.259  1.00  0.00    +0.000 HD
ENDBRANCH   2  23
TORSDOF 5
