REMARK  Name = SANC00438.pdb
AUTHORGENERATED BY OPEN BABEL 2.3.0
REMARK  5 active torsions:
REMARK  status: ('A' for Active; 'I' for Inactive)
REMARK    1  A    between atoms: C_1  and  C_15
REMARK    2  A    between atoms: C_2  and  C_16
REMARK    3  A    between atoms: O_7  and  C_17
REMARK    4  A    between atoms: O_8  and  C_18
REMARK    5  A    between atoms: C_19  and  C_20
REMARK                            x       y       z     vdW  Elec       q    Type
REMARK                         _______ _______ _______ _____ _____    ______ ____
ROOT
ATOM      1  C   UNL     1       6.271  -0.926  -0.024  1.00  0.00    +0.000 C 
ATOM      2  O   UNL     1       2.035  -1.460  -2.881  1.00  0.00    +0.000 OA
ATOM      3  O   UNL     1       0.250   1.435   1.226  1.00  0.00    +0.000 OA
ATOM      4  C   UNL     1       4.394   0.247   1.179  1.00  0.00    +0.000 A 
ATOM      5  C   UNL     1       0.221  -0.546  -1.728  1.00  0.00    +0.000 C 
ATOM      6  C   UNL     1       3.918  -0.847  -0.911  1.00  0.00    +0.000 A 
ATOM      7  C   UNL     1       4.840  -0.484   0.074  1.00  0.00    +0.000 A 
ATOM      8  C   UNL     1       3.051   0.631   1.281  1.00  0.00    +0.000 A 
ATOM      9  C   UNL     1      -0.231   0.175  -0.696  1.00  0.00    +0.000 C 
ATOM     10  C   UNL     1       1.646  -0.869  -1.880  1.00  0.00    +0.000 C 
ATOM     11  C   UNL     1       0.694   0.691   0.358  1.00  0.00    +0.000 C 
ATOM     12  C   UNL     1       2.571  -0.463  -0.806  1.00  0.00    +0.000 A 
ATOM     13  C   UNL     1       2.123   0.284   0.286  1.00  0.00    +0.000 A 
ENDROOT
BRANCH   9  22
ATOM     14  C   UNL     1      -1.482   2.296  -2.317  1.00  0.00    +0.000 C 
ATOM     15  O   UNL     1      -5.872  -0.451   1.599  1.00  0.00    +0.000 OA
ATOM     16  O   UNL     1      -0.804  -1.900   0.963  1.00  0.00    +0.000 OA
ATOM     17  C   UNL     1      -4.040  -1.693   2.362  1.00  0.00    +0.000 C 
ATOM     18  C   UNL     1      -2.760  -2.026   2.204  1.00  0.00    +0.000 C 
ATOM     19  C   UNL     1      -3.643   1.732  -1.198  1.00  0.00    +0.000 A 
ATOM     20  C   UNL     1      -2.276   1.463  -1.342  1.00  0.00    +0.000 A 
ATOM     21  C   UNL     1      -4.412   1.023  -0.283  1.00  0.00    +0.000 A 
ATOM     22  C   UNL     1      -1.684   0.431  -0.570  1.00  0.00    +0.000 A 
ATOM     23  C   UNL     1      -4.674  -0.694   1.492  1.00  0.00    +0.000 C 
ATOM     24  C   UNL     1      -1.917  -1.426   1.153  1.00  0.00    +0.000 C 
ATOM     25  C   UNL     1      -3.839   0.016   0.502  1.00  0.00    +0.000 A 
ATOM     26  C   UNL     1      -2.481  -0.301   0.350  1.00  0.00    +0.000 A 
BRANCH  21  27
ATOM     27  O   UNL     1      -5.732   1.380  -0.210  1.00  0.00    +0.000 OA
ATOM     28  H   UNL     1      -6.172   0.824   0.473  1.00  0.00    +0.000 HD
ENDBRANCH  21  27
ENDBRANCH   9  22
BRANCH   8  29
ATOM     29  O   UNL     1       2.667   1.346   2.381  1.00  0.00    +0.000 OA
ATOM     30  H   UNL     1       3.423   1.500   2.969  1.00  0.00    +0.000 HD
ENDBRANCH   8  29
TORSDOF 3
