REMARK  Name = /srv/my_project/app/compsite/backup/Dave/CORINA_stuff/newPDBs/SANC00642.pdb
AUTHORGENERATED BY OPEN BABEL 2.3.2
REMARK  3 active torsions:
REMARK  status: ('A' for Active; 'I' for Inactive)
REMARK    1  A    between atoms: C_4  and  C_7
REMARK    2  A    between atoms: C_8  and  C_9
REMARK    3  A    between atoms: C_15  and  O_20
REMARK                            x       y       z     vdW  Elec       q    Type
REMARK                         _______ _______ _______ _____ _____    ______ ____
ROOT
ATOM      1  C   UNL     1       0.508  -0.183  -0.276  1.00  0.00    +0.000 C 
ATOM      2  C   UNL     1       1.278   0.354   0.928  1.00  0.00    +0.000 C 
ATOM      3  C   UNL     1       2.739   0.349   0.585  1.00  0.00    +0.000 A 
ATOM      4  C   UNL     1       3.615   1.295   1.133  1.00  0.00    +0.000 A 
ATOM      5  C   UNL     1       4.974   1.256   0.815  1.00  0.00    +0.000 A 
ATOM      6  C   UNL     1       5.467   0.265  -0.035  1.00  0.00    +0.000 A 
ATOM      7  C   UNL     1       4.604  -0.690  -0.565  1.00  0.00    +0.000 A 
ATOM      8  C   UNL     1       3.236  -0.652  -0.265  1.00  0.00    +0.000 A 
ATOM      9  C   UNL     1       2.317  -1.682  -0.812  1.00  0.00    +0.000 C 
ATOM     10  O   UNL     1       2.768  -2.668  -1.386  1.00  0.00    +0.000 OA
ATOM     11  O   UNL     1       0.986  -1.494  -0.628  1.00  0.00    +0.000 OA
ENDROOT
BRANCH   1  13
ATOM     12  C   UNL     1      -1.920   0.411  -0.547  1.00  0.00    +0.000 C 
ATOM     13  C   UNL     1      -0.956  -0.321   0.035  1.00  0.00    +0.000 C 
BRANCH  12  17
ATOM     14  C   UNL     1      -6.103   0.082   0.278  1.00  0.00    +0.000 A 
ATOM     15  C   UNL     1      -5.320  -1.069   0.231  1.00  0.00    +0.000 A 
ATOM     16  C   UNL     1      -3.951  -0.975  -0.031  1.00  0.00    +0.000 A 
ATOM     17  C   UNL     1      -3.350   0.273  -0.239  1.00  0.00    +0.000 A 
ATOM     18  C   UNL     1      -4.151   1.422  -0.206  1.00  0.00    +0.000 A 
ATOM     19  C   UNL     1      -5.520   1.328   0.057  1.00  0.00    +0.000 A 
ENDBRANCH  12  17
ENDBRANCH   1  13
BRANCH   7  20
ATOM     20  O   UNL     1       5.173  -1.641  -1.370  1.00  0.00    +0.000 OA
ATOM     21  H   UNL     1       4.487  -2.306  -1.602  1.00  0.00    +0.000 HD
ENDBRANCH   7  20
TORSDOF 3
