REMARK  Name = /srv/my_project/app/compsite/backup/Dave/CORINA_stuff/newPDBs/SANC00465.pdb
AUTHORGENERATED BY OPEN BABEL 2.3.2
REMARK  10 active torsions:
REMARK  status: ('A' for Active; 'I' for Inactive)
REMARK    1  A    between atoms: C_4  and  O_6
REMARK    2  A    between atoms: C_7  and  C_8
REMARK    3  A    between atoms: C_9  and  C_11
REMARK    4  A    between atoms: C_20  and  O_21
REMARK    5  A    between atoms: C_22  and  O_23
REMARK    6  A    between atoms: C_25  and  O_27
REMARK    7  A    between atoms: O_27  and  C_28
REMARK    8  A    between atoms: C_28  and  C_29
REMARK    9  A    between atoms: C_33  and  O_35
REMARK   10  A    between atoms: C_38  and  C_39
REMARK                            x       y       z     vdW  Elec       q    Type
REMARK                         _______ _______ _______ _____ _____    ______ ____
ROOT
ATOM      1  C   UNL     1      -0.768  -0.480   0.777  1.00  0.00    +0.000 C 
ATOM      2  C   UNL     1      -0.065  -1.848   0.694  1.00  0.00    +0.000 C 
ATOM      3  C   UNL     1       1.437  -1.716   0.974  1.00  0.00    +0.000 C 
ATOM      4  C   UNL     1       2.172  -0.759  -0.016  1.00  0.00    +0.000 C 
ATOM      5  C   UNL     1       2.316  -1.449  -1.393  1.00  0.00    +0.000 C 
ATOM      6  C   UNL     1       3.574  -0.381   0.593  1.00  0.00    +0.000 C 
ATOM      7  C   UNL     1       3.255   0.753   1.592  1.00  0.00    +0.000 C 
ATOM      8  C   UNL     1       1.886   1.330   1.221  1.00  0.00    +0.000 C 
ATOM      9  C   UNL     1       1.426   0.613  -0.060  1.00  0.00    +0.000 C 
ATOM     10  C   UNL     1      -0.133   0.513  -0.238  1.00  0.00    +0.000 C 
ATOM     11  C   UNL     1      -0.802   1.901  -0.122  1.00  0.00    +0.000 C 
ATOM     12  C   UNL     1      -2.325   1.849  -0.273  1.00  0.00    +0.000 C 
ATOM     13  C   UNL     1      -2.939   0.843   0.680  1.00  0.00    +0.000 C 
ATOM     14  C   UNL     1      -3.967   1.224   1.467  1.00  0.00    +0.000 C 
ATOM     15  C   UNL     1      -4.670   0.353   2.457  1.00  0.00    +0.000 C 
ATOM     16  C   UNL     1      -4.313  -1.121   2.309  1.00  0.00    +0.000 C 
ATOM     17  C   UNL     1      -2.821  -1.294   2.042  1.00  0.00    +0.000 C 
ATOM     18  C   UNL     1      -2.341  -0.573   0.732  1.00  0.00    +0.000 C 
ATOM     19  C   UNL     1      -2.869  -1.406  -0.461  1.00  0.00    +0.000 C 
ENDROOT
BRANCH   6  20
ATOM     20  C   UNL     1       4.697  -0.033  -0.381  1.00  0.00    +0.000 A 
ATOM     21  C   UNL     1       5.590  -1.104  -0.772  1.00  0.00    +0.000 A 
ATOM     22  C   UNL     1       6.613  -0.878  -1.602  1.00  0.00    +0.000 A 
ATOM     23  C   UNL     1       6.870   0.469  -2.142  1.00  0.00    +0.000 A 
ATOM     24  O   UNL     1       7.813   0.660  -2.903  1.00  0.00    +0.000 OA
ATOM     25  O   UNL     1       6.022   1.468  -1.752  1.00  0.00    +0.000 OA
ATOM     26  C   UNL     1       4.960   1.183  -0.878  1.00  0.00    +0.000 A 
ENDBRANCH   6  20
BRANCH   3  27
ATOM     27  O   UNL     1       2.038  -3.011   0.941  1.00  0.00    +0.000 OA
ATOM     28  H   UNL     1       1.539  -3.593   1.541  1.00  0.00    +0.000 HD
ENDBRANCH   3  27
BRANCH   9  29
ATOM     29  O   UNL     1       1.917   1.401  -1.160  1.00  0.00    +0.000 OA
ATOM     30  H   UNL     1       1.475   1.032  -1.952  1.00  0.00    +0.000 HD
ENDBRANCH   9  29
BRANCH  10  31
ATOM     31  O   UNL     1      -0.311   0.033  -1.585  1.00  0.00    +0.000 OA
ATOM     32  H   UNL     1      -1.151   0.388  -1.932  1.00  0.00    +0.000 HD
ENDBRANCH  10  31
BRANCH  15  33
ATOM     33  O   UNL     1      -6.067   0.523   2.268  1.00  0.00    +0.000 OA
ATOM     34  H   UNL     1      -6.519  -0.039   2.918  1.00  0.00    +0.000 HD
ENDBRANCH  15  33
BRANCH  12  35
ATOM     35  O   UNL     1      -2.642   1.458  -1.621  1.00  0.00    +0.000 OA
BRANCH  35  36
ATOM     36  C   UNL     1      -3.663   2.135  -2.218  1.00  0.00    +0.000 C 
ATOM     37  C   UNL     1      -3.920   1.560  -3.578  1.00  0.00    +0.000 C 
ATOM     38  O   UNL     1      -4.279   3.075  -1.740  1.00  0.00    +0.000 OA
ENDBRANCH  35  36
ENDBRANCH  12  35
TORSDOF 7
