REMARK  Name = /srv/my_project/app/compsite/backup/Dave/CORINA_stuff/newPDBs/SANC00440.pdb
AUTHORGENERATED BY OPEN BABEL 2.3.2
REMARK  8 active torsions:
REMARK  status: ('A' for Active; 'I' for Inactive)
REMARK    1  A    between atoms: C_1  and  C_2
REMARK    2  A    between atoms: C_2  and  C_23
REMARK    3  A    between atoms: C_3  and  C_4
REMARK    4  A    between atoms: C_4  and  C_5
REMARK    5  A    between atoms: C_13  and  C_22
REMARK    6  A    between atoms: C_17  and  C_18
REMARK    7  A    between atoms: C_17  and  C_19
REMARK    8  A    between atoms: C_19  and  O_21
REMARK                            x       y       z     vdW  Elec       q    Type
REMARK                         _______ _______ _______ _____ _____    ______ ____
ROOT
ATOM      1  C   UNL     1       0.404  -1.337   0.737  1.00  0.00    +0.000 C 
ATOM      2  C   UNL     1       0.860  -0.267   1.726  1.00  0.00    +0.000 C 
ATOM      3  C   UNL     1       1.130  -0.559   3.011  1.00  0.00    +0.000 C 
ATOM      4  C   UNL     1       0.919   1.158   1.228  1.00  0.00    +0.000 C 
ATOM      5  C   UNL     1      -0.161   1.481   0.189  1.00  0.00    +0.000 C 
ATOM      6  C   UNL     1      -1.369   0.544   0.339  1.00  0.00    +0.000 C 
ATOM      7  C   UNL     1      -0.966  -0.939  -0.001  1.00  0.00    +0.000 C 
ATOM      8  C   UNL     1      -2.120  -1.841   0.550  1.00  0.00    +0.000 C 
ATOM      9  C   UNL     1      -3.529  -1.226   0.519  1.00  0.00    +0.000 C 
ATOM     10  C   UNL     1      -3.729  -0.085  -0.477  1.00  0.00    +0.000 C 
ATOM     11  C   UNL     1      -2.683   1.055  -0.338  1.00  0.00    +0.000 C 
ATOM     12  C   UNL     1      -2.475   1.698  -1.727  1.00  0.00    +0.000 C 
ATOM     13  C   UNL     1      -0.875  -1.205  -1.520  1.00  0.00    +0.000 C 
ENDROOT
BRANCH  11  14
ATOM     14  C   UNL     1      -3.263   2.163   0.558  1.00  0.00    +0.000 C 
ATOM     15  O   UNL     1      -3.187   3.368   0.372  1.00  0.00    +0.000 OA
BRANCH  14  16
ATOM     16  O   UNL     1      -3.869   1.710   1.673  1.00  0.00    +0.000 OA
ATOM     17  H   UNL     1      -4.147   2.527   2.137  1.00  0.00    +0.000 HD
ENDBRANCH  14  16
ENDBRANCH  11  14
BRANCH   1  18
ATOM     18  C   UNL     1       1.614  -1.868  -0.093  1.00  0.00    +0.000 C 
BRANCH  18  21
ATOM     19  C   UNL     1       4.401  -0.565   0.480  1.00  0.00    +0.000 C 
ATOM     20  C   UNL     1       3.582  -0.355  -0.769  1.00  0.00    +0.000 C 
ATOM     21  C   UNL     1       2.367  -0.907  -0.979  1.00  0.00    +0.000 C 
BRANCH  20  22
ATOM     22  C   UNL     1       4.136   0.518  -1.803  1.00  0.00    +0.000 C 
ATOM     23  C   UNL     1       5.325   1.133  -1.776  1.00  0.00    +0.000 C 
ENDBRANCH  20  22
ENDBRANCH  18  21
ENDBRANCH   1  18
TORSDOF 5
