REMARK  Name = SANCDB_00967_minRM1.pdb
AUTHORGENERATED BY OPEN BABEL 2.3.2
REMARK  0 active torsions:
REMARK  status: ('A' for Active; 'I' for Inactive)
REMARK                            x       y       z     vdW  Elec       q    Type
REMARK                         _______ _______ _______ _____ _____    ______ ____
ROOT
ATOM      1  C   UNL     1       0.557  -1.127  -0.425  1.00  0.00    +0.000 C 
ATOM      2  C   UNL     1      -0.707  -1.071   0.422  1.00  0.00    +0.000 C 
ATOM      3  C   UNL     1      -1.439   0.230   0.139  1.00  0.00    +0.000 C 
ATOM      4  N   UNL     1      -0.578   1.384   0.265  1.00  0.00    +0.000 N 
ATOM      5  C   UNL     1       0.739   1.386  -0.109  1.00  0.00    +0.000 C 
ATOM      6  O   UNL     1       1.315   2.446  -0.337  1.00  0.00    +0.000 OA
ATOM      7  C   UNL     1       1.461   0.055  -0.106  1.00  0.00    +0.000 C 
ATOM      8  H   UNL     1      -1.000   2.304   0.213  1.00  0.00    +0.000 HD
ENDROOT
TORSDOF 0
