REMARK  Name = /srv/my_project/app/compsite/backup/Dave/CORINA_stuff/newPDBs/SANC00282.pdb
AUTHORGENERATED BY OPEN BABEL 2.3.2
REMARK  16 active torsions:
REMARK  status: ('A' for Active; 'I' for Inactive)
REMARK    1  A    between atoms: C_1  and  C_2
REMARK    2  A    between atoms: C_2  and  C_3
REMARK    3  A    between atoms: C_3  and  C_4
REMARK    4  A    between atoms: C_3  and  C_5
REMARK    5  A    between atoms: C_5  and  O_7
REMARK    6  A    between atoms: O_7  and  C_8
REMARK    7  A    between atoms: C_10  and  C_38
REMARK    8  A    between atoms: C_12  and  O_37
REMARK    9  A    between atoms: C_17  and  C_18
REMARK   10  A    between atoms: C_17  and  C_19
REMARK   11  A    between atoms: C_21  and  C_32
REMARK   12  A    between atoms: C_23  and  O_31
REMARK   13  A    between atoms: C_27  and  C_30
REMARK   14  A    between atoms: C_32  and  O_33
REMARK   15  A    between atoms: O_33  and  C_34
REMARK   16  A    between atoms: C_34  and  C_36
REMARK                            x       y       z     vdW  Elec       q    Type
REMARK                         _______ _______ _______ _____ _____    ______ ____
ROOT
ATOM      1  C   UNL     1       2.049  -0.989  -0.154  1.00  0.00    +0.000 C 
ATOM      2  C   UNL     1       1.250  -2.083   0.508  1.00  0.00    +0.000 C 
ATOM      3  C   UNL     1      -0.295  -2.013   0.383  1.00  0.00    +0.000 C 
ATOM      4  C   UNL     1      -0.841  -0.545   0.312  1.00  0.00    +0.000 C 
ATOM      5  C   UNL     1      -0.179   0.140  -0.952  1.00  0.00    +0.000 C 
ATOM      6  C   UNL     1       1.336   0.138  -0.860  1.00  0.00    +0.000 C 
ATOM      7  C   UNL     1       2.202  -0.827  -1.671  1.00  0.00    +0.000 C 
ATOM      8  C   UNL     1       3.492  -0.250  -2.219  1.00  0.00    +0.000 C 
ATOM      9  C   UNL     1       1.616  -1.863  -2.599  1.00  0.00    +0.000 C 
ATOM     10  C   UNL     1      -0.748   1.498  -1.335  1.00  0.00    +0.000 C 
ATOM     11  C   UNL     1      -1.982   1.746  -1.830  1.00  0.00    +0.000 C 
ATOM     12  C   UNL     1      -3.116   0.729  -1.974  1.00  0.00    +0.000 C 
ATOM     13  C   UNL     1      -3.025  -0.570  -1.151  1.00  0.00    +0.000 C 
ATOM     14  C   UNL     1      -2.392  -0.346   0.238  1.00  0.00    +0.000 C 
ATOM     15  C   UNL     1      -3.306  -1.078   1.190  1.00  0.00    +0.000 C 
ATOM     16  C   UNL     1      -4.459  -1.489   0.651  1.00  0.00    +0.000 C 
ATOM     17  C   UNL     1      -4.395  -1.116  -0.774  1.00  0.00    +0.000 C 
ATOM     18  O   UNL     1      -5.311  -1.304  -1.564  1.00  0.00    +0.000 OA
ATOM     19  C   UNL     1      -5.621  -2.165   1.263  1.00  0.00    +0.000 C 
ATOM     20  C   UNL     1      -0.866  -2.882   1.513  1.00  0.00    +0.000 C 
ENDROOT
BRANCH  13  21
ATOM     21  O   UNL     1      -2.409  -1.615  -1.911  1.00  0.00    +0.000 OA
ATOM     22  H   UNL     1      -3.017  -1.816  -2.650  1.00  0.00    +0.000 HD
ENDBRANCH  13  21
BRANCH   4  23
ATOM     23  O   UNL     1      -0.474   0.136   1.531  1.00  0.00    +0.000 OA
ATOM     24  H   UNL     1       0.489   0.314   1.553  1.00  0.00    +0.000 HD
ENDBRANCH   4  23
BRANCH   1  25
ATOM     25  O   UNL     1       3.268  -0.674   0.570  1.00  0.00    +0.000 OA
BRANCH  25  26
ATOM     26  C   UNL     1       3.183   0.146   1.655  1.00  0.00    +0.000 C 
ATOM     27  O   UNL     1       2.143   0.648   2.064  1.00  0.00    +0.000 OA
BRANCH  26  28
ATOM     28  C   UNL     1       4.538   0.352   2.302  1.00  0.00    +0.000 C 
ATOM     29  C   UNL     1       5.511   0.972   1.302  1.00  0.00    +0.000 C 
BRANCH  28  31
ATOM     30  C   UNL     1       6.269  -0.806   3.775  1.00  0.00    +0.000 C 
ATOM     31  C   UNL     1       5.035  -0.971   2.900  1.00  0.00    +0.000 C 
ENDBRANCH  28  31
ENDBRANCH  26  28
ENDBRANCH  25  26
ENDBRANCH   1  25
BRANCH  11  32
ATOM     32  C   UNL     1      -2.349   3.147  -2.276  1.00  0.00    +0.000 C 
BRANCH  32  33
ATOM     33  O   UNL     1      -3.334   3.655  -1.370  1.00  0.00    +0.000 OA
BRANCH  33  34
ATOM     34  C   UNL     1      -3.750   4.915  -1.663  1.00  0.00    +0.000 C 
ATOM     35  O   UNL     1      -3.361   5.590  -2.605  1.00  0.00    +0.000 OA
ATOM     36  C   UNL     1      -4.768   5.364  -0.660  1.00  0.00    +0.000 C 
ENDBRANCH  33  34
ENDBRANCH  32  33
ENDBRANCH  11  32
TORSDOF 9
