REMARK  Name = SANCDB_00861_minRM1.pdb
AUTHORGENERATED BY OPEN BABEL 2.3.2
REMARK  14 active torsions:
REMARK  status: ('A' for Active; 'I' for Inactive)
REMARK    1  A    between atoms: C_3  and  O_26
REMARK    2  A    between atoms: C_4  and  C_8
REMARK    3  A    between atoms: C_5  and  O_7
REMARK    4  A    between atoms: C_8  and  C_10
REMARK    5  A    between atoms: C_10  and  C_11
REMARK    6  A    between atoms: C_11  and  C_12
REMARK    7  A    between atoms: C_12  and  C_13
REMARK    8  A    between atoms: C_13  and  C_14
REMARK    9  A    between atoms: C_14  and  C_15
REMARK   10  A    between atoms: C_15  and  C_16
REMARK   11  A    between atoms: C_16  and  C_17
REMARK   12  A    between atoms: C_17  and  C_18
REMARK   13  A    between atoms: C_20  and  O_25
REMARK   14  A    between atoms: C_21  and  O_24
REMARK                            x       y       z     vdW  Elec       q    Type
REMARK                         _______ _______ _______ _____ _____    ______ ____
ROOT
ATOM      1  C   UNL     1       0.938   0.010  -0.692  1.00  0.00    +0.000 C 
ENDROOT
BRANCH   1   2
ATOM      2  C   UNL     1       2.215   0.104   0.144  1.00  0.00    +0.000 C 
BRANCH   2   3
ATOM      3  C   UNL     1       3.337   0.784  -0.636  1.00  0.00    +0.000 C 
BRANCH   3   4
ATOM      4  C   UNL     1       4.606   0.840   0.188  1.00  0.00    +0.000 C 
ATOM      5  O   UNL     1       4.702   1.612   1.148  1.00  0.00    +0.000 OA
BRANCH   4   9
ATOM      6  C   UNL     1       8.143  -1.377  -0.862  1.00  0.00    +0.000 A 
ATOM      7  C   UNL     1       8.234  -0.156  -0.200  1.00  0.00    +0.000 A 
ATOM      8  C   UNL     1       7.073   0.532   0.149  1.00  0.00    +0.000 A 
ATOM      9  C   UNL     1       5.801   0.028  -0.178  1.00  0.00    +0.000 A 
ATOM     10  C   UNL     1       5.726  -1.217  -0.819  1.00  0.00    +0.000 A 
ATOM     11  C   UNL     1       6.891  -1.913  -1.165  1.00  0.00    +0.000 A 
BRANCH  10  12
ATOM     12  O   UNL     1       4.519  -1.799  -1.089  1.00  0.00    +0.000 OA
ATOM     13  H   UNL     1       4.662  -2.678  -1.478  1.00  0.00    +0.000 HD
ENDBRANCH  10  12
BRANCH   8  14
ATOM     14  O   UNL     1       7.261   1.714   0.820  1.00  0.00    +0.000 OA
ATOM     15  H   UNL     1       6.389   1.994   1.180  1.00  0.00    +0.000 HD
ENDBRANCH   8  14
ENDBRANCH   4   9
ENDBRANCH   3   4
ENDBRANCH   2   3
ENDBRANCH   1   2
BRANCH   1  16
ATOM     16  C   UNL     1      -0.193  -0.754   0.003  1.00  0.00    +0.000 C 
BRANCH  16  17
ATOM     17  C   UNL     1      -0.708  -0.058   1.267  1.00  0.00    +0.000 C 
BRANCH  17  18
ATOM     18  C   UNL     1      -1.940  -0.747   1.865  1.00  0.00    +0.000 C 
BRANCH  18  19
ATOM     19  C   UNL     1      -3.276  -0.091   1.498  1.00  0.00    +0.000 C 
BRANCH  19  20
ATOM     20  C   UNL     1      -3.607  -0.138   0.006  1.00  0.00    +0.000 C 
BRANCH  20  21
ATOM     21  C   UNL     1      -4.996   0.388  -0.272  1.00  0.00    +0.000 A 
ATOM     22  C   UNL     1      -6.095  -0.485  -0.295  1.00  0.00    +0.000 A 
ATOM     23  C   UNL     1      -7.368   0.021  -0.537  1.00  0.00    +0.000 A 
ATOM     24  C   UNL     1      -7.556   1.384  -0.751  1.00  0.00    +0.000 A 
ATOM     25  C   UNL     1      -6.483   2.261  -0.725  1.00  0.00    +0.000 A 
ATOM     26  C   UNL     1      -5.202   1.762  -0.482  1.00  0.00    +0.000 A 
BRANCH  24  27
ATOM     27  O   UNL     1      -8.810   1.870  -0.988  1.00  0.00    +0.000 OA
ATOM     28  H   UNL     1      -9.386   1.080  -0.956  1.00  0.00    +0.000 HD
ENDBRANCH  24  27
BRANCH  23  29
ATOM     29  O   UNL     1      -8.472  -0.786  -0.573  1.00  0.00    +0.000 OA
ATOM     30  H   UNL     1      -8.182  -1.698  -0.403  1.00  0.00    +0.000 HD
ENDBRANCH  23  29
ENDBRANCH  20  21
ENDBRANCH  19  20
ENDBRANCH  18  19
ENDBRANCH  17  18
ENDBRANCH  16  17
ENDBRANCH   1  16
TORSDOF 14
