REMARK  Name = /srv/my_project/app/compsite/backup/Dave/CORINA_stuff/newPDBs/SANC00129.pdb
AUTHORGENERATED BY OPEN BABEL 2.3.2
REMARK  1 active torsions:
REMARK  status: ('A' for Active; 'I' for Inactive)
REMARK    1  A    between atoms: C_1  and  N_2
REMARK                            x       y       z     vdW  Elec       q    Type
REMARK                         _______ _______ _______ _____ _____    ______ ____
ROOT
ATOM      1  C   UNL     1       2.767  -1.152  -0.103  1.00  0.00    +0.000 C 
ATOM      2  N   UNL     1       1.594  -0.279  -0.151  1.00  0.00    +0.000 N 
ATOM      3  C   UNL     1       1.853   1.116   0.339  1.00  0.00    +0.000 C 
ATOM      4  C   UNL     1       0.803   2.151  -0.147  1.00  0.00    +0.000 C 
ATOM      5  C   UNL     1      -0.566   1.585  -0.032  1.00  0.00    +0.000 A 
ATOM      6  C   UNL     1      -1.823   2.145   0.062  1.00  0.00    +0.000 A 
ATOM      7  N   UNL     1      -2.747   1.116   0.104  1.00  0.00    +0.000 N 
ATOM      8  H   UNL     1      -3.753   1.222   0.162  1.00  0.00    +0.000 HD
ATOM      9  C   UNL     1      -2.088  -0.086   0.030  1.00  0.00    +0.000 A 
ATOM     10  C   UNL     1      -2.625  -1.413   0.013  1.00  0.00    +0.000 C 
ATOM     11  O   UNL     1      -3.813  -1.685   0.086  1.00  0.00    +0.000 OA
ATOM     12  C   UNL     1      -1.528  -2.502  -0.116  1.00  0.00    +0.000 C 
ATOM     13  O   UNL     1      -1.821  -3.691  -0.166  1.00  0.00    +0.000 OA
ATOM     14  C   UNL     1      -0.089  -2.082  -0.171  1.00  0.00    +0.000 C 
ATOM     15  C   UNL     1       0.278  -0.786  -0.120  1.00  0.00    +0.000 C 
ATOM     16  C   UNL     1      -0.754   0.196  -0.036  1.00  0.00    +0.000 A 
ENDROOT
TORSDOF 0
