REMARK  Name = /srv/my_project/app/compsite/backup/Dave/CORINA_stuff/newPDBs/SANC00249.pdb
AUTHORGENERATED BY OPEN BABEL 2.3.2
REMARK  5 active torsions:
REMARK  status: ('A' for Active; 'I' for Inactive)
REMARK    1  A    between atoms: N_10  and  C1*_11
REMARK    2  A    between atoms: C4*_13  and  C5*_15
REMARK    3  A    between atoms: C5*_15  and  O5*_16
REMARK    4  A    between atoms: C3*_17  and  O3*_19
REMARK    5  A    between atoms: C2*_20  and  O2*_22
REMARK                            x       y       z     vdW  Elec       q    Type
REMARK                         _______ _______ _______ _____ _____    ______ ____
ROOT
ATOM      1  O   UNL     1       2.481   3.357  -2.087  1.00  0.00    +0.000 OA
ATOM      2  C   UNL     1       2.383   2.383  -1.350  1.00  0.00    +0.000 C 
ATOM      3  C   UNL     1       3.615   1.639  -0.928  1.00  0.00    +0.000 C 
ATOM      4  C   UNL     1       3.531   0.545  -0.154  1.00  0.00    +0.000 C 
ATOM      5  N   UNL     1       4.607  -0.208   0.305  1.00  0.00    +0.000 N 
ATOM      6  C   UNL     1       4.472  -1.093   1.486  1.00  0.00    +0.000 C 
ATOM      7  C   UNL     1       3.149  -1.909   1.486  1.00  0.00    +0.000 C 
ATOM      8  C   UNL     1       2.012  -1.055   1.033  1.00  0.00    +0.000 A 
ATOM      9  C   UNL     1       0.644  -1.123   1.200  1.00  0.00    +0.000 A 
ATOM     10  N   UNL     1       0.065  -0.079   0.496  1.00  0.00    +0.000 N 
ATOM     11  C   UNL     1       1.069   0.695  -0.059  1.00  0.00    +0.000 A 
ATOM     12  C   UNL     1       0.998   1.913  -0.824  1.00  0.00    +0.000 C 
ATOM     13  O   UNL     1      -0.016   2.564  -1.026  1.00  0.00    +0.000 OA
ATOM     14  C   UNL     1       2.249   0.081   0.250  1.00  0.00    +0.000 A 
ATOM     15  H   UNL     1       5.508   0.254   0.222  1.00  0.00    +0.000 HD
ENDROOT
BRANCH  10  16
ATOM     16  C1* UNL     1      -1.351   0.209   0.350  1.00  0.00    +0.000 C 
ATOM     17  O4* UNL     1      -1.707   0.076  -1.047  1.00  0.00    +0.000 OA
ATOM     18  C4* UNL     1      -3.151   0.012  -1.100  1.00  0.00    +0.000 C 
ATOM     19  C3* UNL     1      -3.645  -0.221   0.338  1.00  0.00    +0.000 C 
ATOM     20  C2* UNL     1      -2.376  -0.691   1.042  1.00  0.00    +0.000 C 
BRANCH  19  21
ATOM     21  O3* UNL     1      -4.670  -1.210   0.397  1.00  0.00    +0.000 OA
ATOM     22  H3* UNL     1      -4.215  -2.060   0.575  1.00  0.00    +0.000 HD
ENDBRANCH  19  21
BRANCH  20  23
ATOM     23  O2* UNL     1      -2.229  -2.097   0.744  1.00  0.00    +0.000 OA
ATOM     24  H2* UNL     1      -1.750  -2.165  -0.107  1.00  0.00    +0.000 HD
ENDBRANCH  20  23
BRANCH  18  25
ATOM     25  C5* UNL     1      -3.699   1.302  -1.718  1.00  0.00    +0.000 C 
BRANCH  25  26
ATOM     26  O5* UNL     1      -5.118   1.364  -1.677  1.00  0.00    +0.000 OA
ATOM     27  H5* UNL     1      -5.471   0.519  -2.006  1.00  0.00    +0.000 HD
ENDBRANCH  25  26
ENDBRANCH  18  25
ENDBRANCH  10  16
TORSDOF 5
