REMARK  Name = SANCDB01134.pdb
REMARK  10 active torsions:
REMARK  status: ('A' for Active; 'I' for Inactive)
REMARK    1  A    between atoms: C_1  and  C_2
REMARK    2  A    between atoms: C_2  and  O_3
REMARK    3  A    between atoms: O_3  and  C_4
REMARK    4  A    between atoms: C_13  and  C_14
REMARK    5  A    between atoms: C_13  and  C_15
REMARK    6  A    between atoms: C_18  and  O_19
REMARK    7  A    between atoms: C_20  and  O_21
REMARK    8  A    between atoms: C_22  and  C_25
REMARK    9  A    between atoms: C_25  and  C_26
REMARK   10  A    between atoms: C_25  and  C_27
REMARK                            x       y       z     vdW  Elec       q    Type
REMARK                         _______ _______ _______ _____ _____    ______ ____
ROOT
ATOM      1  C   UNL     1      -0.041   0.991  -1.189  1.00  0.00    +0.000 C 
ATOM      2  C   UNL     1      -1.489   0.454  -1.162  1.00  0.00    +0.000 C 
ATOM      3  O   UNL     1      -1.633  -0.664  -2.064  1.00  0.00    +0.000 OA
ATOM      4  C   UNL     1      -1.395  -1.825  -1.365  1.00  0.00    +0.000 C 
ATOM      5  O   UNL     1      -1.407  -2.942  -1.854  1.00  0.00    +0.000 OA
ATOM      6  C   UNL     1      -1.043  -1.465   0.068  1.00  0.00    +0.000 C 
ATOM      7  C   UNL     1      -1.502  -2.511   1.101  1.00  0.00    +0.000 C 
ATOM      8  C   UNL     1      -2.999  -2.557   1.384  1.00  0.00    +0.000 C 
ATOM      9  C   UNL     1      -3.552  -1.180   1.708  1.00  0.00    +0.000 C 
ATOM     10  C   UNL     1      -3.337  -0.190   0.547  1.00  0.00    +0.000 C 
ATOM     11  C   UNL     1      -4.261  -0.573  -0.631  1.00  0.00    +0.000 C 
ATOM     12  C   UNL     1      -3.792   1.210   1.027  1.00  0.00    +0.000 C 
ATOM     13  C   UNL     1      -1.808  -0.126   0.212  1.00  0.00    +0.000 C 
ATOM     14  C   UNL     1       0.482  -1.186   0.057  1.00  0.00    +0.000 A 
ATOM     15  C   UNL     1       1.469  -2.075   0.494  1.00  0.00    +0.000 A 
ATOM     16  C   UNL     1       2.823  -1.709   0.539  1.00  0.00    +0.000 A 
ATOM     17  C   UNL     1       3.264  -0.469   0.084  1.00  0.00    +0.000 A 
ATOM     18  C   UNL     1       2.299   0.388  -0.462  1.00  0.00    +0.000 A 
ATOM     19  C   UNL     1       0.931   0.042  -0.496  1.00  0.00    +0.000 A 
ENDROOT
BRANCH  17  20
ATOM     20  C   UNL     1       4.730  -0.078   0.132  1.00  0.00    +0.000 C 
ATOM     21  C   UNL     1       4.947   1.239   0.883  1.00  0.00    +0.000 C 
ATOM     22  C   UNL     1       5.326  -0.005  -1.276  1.00  0.00    +0.000 C 
ENDBRANCH  17  20
BRANCH  15  23
ATOM     23  O   UNL     1       1.206  -3.374   0.839  1.00  0.00    +0.000 OA
ATOM     24  H   UNL     1       0.700  -3.753   0.094  1.00  0.00    +0.000 HD
ENDBRANCH  15  23
BRANCH  16  25
ATOM     25  O   UNL     1       3.721  -2.626   1.021  1.00  0.00    +0.000 OA
ATOM     26  H   UNL     1       3.171  -3.381   1.312  1.00  0.00    +0.000 HD
ENDBRANCH  16  25
BRANCH   1  27
ATOM     27  O   UNL     1       0.017   2.243  -0.497  1.00  0.00    +0.000 OA
BRANCH  27  29
ATOM     28  C   UNL     1      -0.132   4.622  -0.524  1.00  0.00    +0.000 C 
ATOM     29  C   UNL     1      -0.146   3.362  -1.365  1.00  0.00    +0.000 C 
ENDBRANCH  27  29
ENDBRANCH   1  27
TORSDOF 5
