REMARK  Name = /srv/my_project/app/compsite/backup/Dave/CORINA_stuff/newPDBs/SANC00316.pdb
AUTHORGENERATED BY OPEN BABEL 2.3.2
REMARK  4 active torsions:
REMARK  status: ('A' for Active; 'I' for Inactive)
REMARK    1  A    between atoms: C_4  and  O_6
REMARK    2  A    between atoms: O_6  and  C_7
REMARK    3  A    between atoms: C_20  and  O_22
REMARK    4  A    between atoms: C_25  and  O_27
REMARK                            x       y       z     vdW  Elec       q    Type
REMARK                         _______ _______ _______ _____ _____    ______ ____
ROOT
ATOM      1  C   UNL     1      -1.031  -0.500  -0.583  1.00  0.00    +0.000 C 
ATOM      2  C   UNL     1      -2.455   0.025  -0.798  1.00  0.00    +0.000 C 
ATOM      3  C   UNL     1      -2.409   1.534  -1.080  1.00  0.00    +0.000 C 
ATOM      4  C   UNL     1      -1.555   2.257  -0.071  1.00  0.00    +0.000 C 
ATOM      5  C   UNL     1      -0.637   1.652   0.704  1.00  0.00    +0.000 C 
ATOM      6  C   UNL     1      -0.317   0.171   0.624  1.00  0.00    +0.000 C 
ATOM      7  C   UNL     1       1.182  -0.166   0.474  1.00  0.00    +0.000 A 
ATOM      8  C   UNL     1       2.215   0.700   0.871  1.00  0.00    +0.000 A 
ATOM      9  C   UNL     1       3.518   0.272   0.719  1.00  0.00    +0.000 A 
ATOM     10  O   UNL     1       4.627   0.988   1.049  1.00  0.00    +0.000 OA
ATOM     11  C   UNL     1       5.668   0.067   0.663  1.00  0.00    +0.000 C 
ATOM     12  O   UNL     1       5.167  -1.181   0.142  1.00  0.00    +0.000 OA
ATOM     13  C   UNL     1       3.826  -0.964   0.204  1.00  0.00    +0.000 A 
ATOM     14  C   UNL     1       2.850  -1.851  -0.189  1.00  0.00    +0.000 A 
ATOM     15  C   UNL     1       1.507  -1.460  -0.050  1.00  0.00    +0.000 A 
ATOM     16  C   UNL     1       0.402  -2.421  -0.472  1.00  0.00    +0.000 C 
ATOM     17  N   UNL     1      -0.976  -1.951  -0.249  1.00  0.00    +0.000 NA
ATOM     18  C   UNL     1      -1.299  -1.992   1.198  1.00  0.00    +0.000 C 
ATOM     19  C   UNL     1      -0.845  -0.660   1.833  1.00  0.00    +0.000 C 
ENDROOT
BRANCH   3  20
ATOM     20  O   UNL     1      -3.749   2.024  -1.002  1.00  0.00    +0.000 OA
ATOM     21  C   UNL     1      -4.000   3.103  -1.891  1.00  0.00    +0.000 C 
ENDBRANCH   3  20
BRANCH  16  22
ATOM     22  O   UNL     1       0.531  -2.674  -1.857  1.00  0.00    +0.000 OA
ATOM     23  H   UNL     1      -0.390  -2.834  -2.123  1.00  0.00    +0.000 HD
ENDBRANCH  16  22
BRANCH  19  24
ATOM     24  O   UNL     1      -1.937  -0.034   2.508  1.00  0.00    +0.000 OA
ATOM     25  H   UNL     1      -2.244  -0.636   3.206  1.00  0.00    +0.000 HD
ENDBRANCH  19  24
TORSDOF 3
