REMARK  Name = /srv/my_project/app/compsite/backup/Dave/CORINA_stuff/newPDBs/SANC00104.pdb
AUTHORGENERATED BY OPEN BABEL 2.3.2
REMARK  7 active torsions:
REMARK  status: ('A' for Active; 'I' for Inactive)
REMARK    1  A    between atoms: C_2  and  C_3
REMARK    2  A    between atoms: C_2  and  C_13
REMARK    3  A    between atoms: C_4  and  O_5
REMARK    4  A    between atoms: C_7  and  O_8
REMARK    5  A    between atoms: C_10  and  O_11
REMARK    6  A    between atoms: O_11  and  C_12
REMARK    7  A    between atoms: C_14  and  C_15
REMARK                            x       y       z     vdW  Elec       q    Type
REMARK                         _______ _______ _______ _____ _____    ______ ____
ROOT
ATOM      1  C   UNL     1      -1.738  -0.288   0.871  1.00  0.00    +0.000 A 
ATOM      2  C   UNL     1      -2.121  -1.633   0.796  1.00  0.00    +0.000 A 
ATOM      3  C   UNL     1      -3.066  -2.043  -0.142  1.00  0.00    +0.000 A 
ATOM      4  C   UNL     1      -3.614  -1.093  -0.999  1.00  0.00    +0.000 A 
ATOM      5  C   UNL     1      -3.238   0.249  -0.935  1.00  0.00    +0.000 A 
ATOM      6  C   UNL     1      -2.295   0.669   0.007  1.00  0.00    +0.000 A 
ENDROOT
BRANCH   1   8
ATOM      7  O   UNL     1      -1.156   0.418   3.028  1.00  0.00    +0.000 OA
ATOM      8  C   UNL     1      -0.769   0.130   1.899  1.00  0.00    +0.000 C 
BRANCH   8   9
ATOM      9  C   UNL     1       0.678   0.204   1.556  1.00  0.00    +0.000 C 
ATOM     10  C   UNL     1       1.208  -0.107   0.364  1.00  0.00    +0.000 C 
BRANCH  10  11
ATOM     11  C   UNL     1       2.646  -0.022   0.070  1.00  0.00    +0.000 A 
ATOM     12  C   UNL     1       3.228  -0.995  -0.752  1.00  0.00    +0.000 A 
ATOM     13  C   UNL     1       4.585  -0.933  -1.078  1.00  0.00    +0.000 A 
ATOM     14  C   UNL     1       5.371   0.110  -0.593  1.00  0.00    +0.000 A 
ATOM     15  C   UNL     1       4.801   1.092   0.213  1.00  0.00    +0.000 A 
ATOM     16  C   UNL     1       3.443   1.030   0.539  1.00  0.00    +0.000 A 
ENDBRANCH  10  11
ENDBRANCH   8   9
ENDBRANCH   1   8
BRANCH   2  17
ATOM     17  O   UNL     1      -1.549  -2.553   1.630  1.00  0.00    +0.000 OA
ATOM     18  H   UNL     1      -2.056  -3.381   1.607  1.00  0.00    +0.000 HD
ENDBRANCH   2  17
BRANCH   4  19
ATOM     19  O   UNL     1      -4.539  -1.439  -1.941  1.00  0.00    +0.000 OA
ATOM     20  H   UNL     1      -4.737  -2.387  -1.867  1.00  0.00    +0.000 HD
ENDBRANCH   4  19
BRANCH   6  21
ATOM     21  O   UNL     1      -1.849   1.957   0.141  1.00  0.00    +0.000 OA
ATOM     22  C   UNL     1      -2.522   2.965  -0.603  1.00  0.00    +0.000 C 
ENDBRANCH   6  21
TORSDOF 6
