REMARK  Name = /srv/my_project/app/compsite/backup/Dave/CORINA_stuff/newPDBs/SANC00518.pdb
AUTHORGENERATED BY OPEN BABEL 2.3.2
REMARK  15 active torsions:
REMARK  status: ('A' for Active; 'I' for Inactive)
REMARK    1  A    between atoms: C_5  and  C_6
REMARK    2  A    between atoms: C_15  and  C_16
REMARK    3  A    between atoms: C_16  and  C_18
REMARK    4  A    between atoms: C_21  and  C_22
REMARK    5  A    between atoms: C_25  and  C_26
REMARK    6  A    between atoms: C_27  and  C_28
REMARK    7  A    between atoms: C_31  and  O_33
REMARK    8  A    between atoms: O_33  and  C_34
REMARK    9  A    between atoms: C_34  and  C_36
REMARK   10  A    between atoms: C_37  and  C_38
REMARK   11  A    between atoms: C_41  and  O_42
REMARK   12  A    between atoms: O_42  and  C_43
REMARK   13  A    between atoms: C_44  and  O_45
REMARK   14  A    between atoms: C_47  and  C_48
REMARK   15  A    between atoms: C_47  and  C_49
REMARK                            x       y       z     vdW  Elec       q    Type
REMARK                         _______ _______ _______ _____ _____    ______ ____
ROOT
ATOM      1  C   UNL     1       0.496  -2.515  -1.108  1.00  0.00    +0.000 C 
ATOM      2  C   UNL     1      -0.360  -2.248  -2.362  1.00  0.00    +0.000 C 
ATOM      3  C   UNL     1      -1.831  -2.009  -2.004  1.00  0.00    +0.000 C 
ATOM      4  C   UNL     1      -2.067  -0.841  -1.009  1.00  0.00    +0.000 C 
ATOM      5  C   UNL     1      -1.764   0.480  -1.780  1.00  0.00    +0.000 C 
ATOM      6  C   UNL     1      -1.098  -1.024   0.231  1.00  0.00    +0.000 C 
ATOM      7  C   UNL     1      -1.333   0.072   1.300  1.00  0.00    +0.000 C 
ATOM      8  C   UNL     1      -2.795   0.159   1.751  1.00  0.00    +0.000 C 
ATOM      9  C   UNL     1      -3.744   0.382   0.564  1.00  0.00    +0.000 C 
ATOM     10  C   UNL     1      -5.207   0.606   0.983  1.00  0.00    +0.000 C 
ATOM     11  C   UNL     1      -5.662   1.653   2.035  1.00  0.00    +0.000 C 
ATOM     12  C   UNL     1      -7.195   1.402   1.950  1.00  0.00    +0.000 C 
ATOM     13  C   UNL     1      -7.518   1.025   0.487  1.00  0.00    +0.000 C 
ATOM     14  C   UNL     1      -6.158   0.830  -0.220  1.00  0.00    +0.000 C 
ATOM     15  C   UNL     1      -5.860   2.072  -1.093  1.00  0.00    +0.000 C 
ATOM     16  C   UNL     1      -6.097  -0.408  -1.133  1.00  0.00    +0.000 C 
ATOM     17  C   UNL     1      -4.657  -0.670  -1.621  1.00  0.00    +0.000 C 
ATOM     18  C   UNL     1      -3.605  -0.822  -0.468  1.00  0.00    +0.000 C 
ATOM     19  C   UNL     1      -3.971  -2.188   0.216  1.00  0.00    +0.000 C 
ATOM     20  C   UNL     1       0.435  -1.328  -0.083  1.00  0.00    +0.000 C 
ATOM     21  C   UNL     1       1.174  -0.065  -0.582  1.00  0.00    +0.000 C 
ATOM     22  C   UNL     1       1.131  -1.788   1.248  1.00  0.00    +0.000 C 
ATOM     23  C   UNL     1       2.038  -3.019   1.131  1.00  0.00    +0.000 C 
ATOM     24  C   UNL     1       2.862  -3.048  -0.154  1.00  0.00    +0.000 C 
ATOM     25  C   UNL     1       1.942  -3.076  -1.424  1.00  0.00    +0.000 C 
ATOM     26  C   UNL     1       2.624  -2.373  -2.617  1.00  0.00    +0.000 C 
ATOM     27  C   UNL     1       1.786  -4.571  -1.832  1.00  0.00    +0.000 C 
ENDROOT
BRANCH  11  28
ATOM     28  C   UNL     1      -5.226   3.120   1.922  1.00  0.00    +0.000 C 
ATOM     29  C   UNL     1      -6.052   4.156   1.682  1.00  0.00    +0.000 C 
ATOM     30  C   UNL     1      -3.783   3.435   2.219  1.00  0.00    +0.000 C 
ENDBRANCH  11  28
BRANCH  24  31
ATOM     31  O   UNL     1       3.740  -1.905  -0.182  1.00  0.00    +0.000 OA
BRANCH  31  32
ATOM     32  C   UNL     1       4.905  -2.014   0.502  1.00  0.00    +0.000 C 
ATOM     33  O   UNL     1       5.295  -2.978   1.138  1.00  0.00    +0.000 OA
BRANCH  32  34
ATOM     34  C   UNL     1       5.636  -0.740   0.347  1.00  0.00    +0.000 C 
ATOM     35  C   UNL     1       6.838  -0.585   0.922  1.00  0.00    +0.000 C 
BRANCH  35  36
ATOM     36  C   UNL     1       7.633   0.647   0.840  1.00  0.00    +0.000 A 
ATOM     37  C   UNL     1       7.694   1.423  -0.324  1.00  0.00    +0.000 A 
ATOM     38  C   UNL     1       8.484   2.579  -0.377  1.00  0.00    +0.000 A 
ATOM     39  C   UNL     1       9.234   2.975   0.732  1.00  0.00    +0.000 A 
ATOM     40  C   UNL     1       9.183   2.187   1.889  1.00  0.00    +0.000 A 
ATOM     41  C   UNL     1       8.398   1.032   1.946  1.00  0.00    +0.000 A 
BRANCH  39  42
ATOM     42  O   UNL     1      10.035   4.084   0.786  1.00  0.00    +0.000 OA
ATOM     43  C   UNL     1      10.104   4.900  -0.374  1.00  0.00    +0.000 C 
ENDBRANCH  39  42
BRANCH  40  44
ATOM     44  O   UNL     1       9.921   2.561   2.983  1.00  0.00    +0.000 OA
ATOM     45  H   UNL     1       9.784   1.918   3.696  1.00  0.00    +0.000 HD
ENDBRANCH  40  44
ENDBRANCH  35  36
ENDBRANCH  32  34
ENDBRANCH  31  32
ENDBRANCH  24  31
TORSDOF 7
