REMARK  Name = SANCDB_00783_minRM1.pdb
AUTHORGENERATED BY OPEN BABEL 2.3.2
REMARK  10 active torsions:
REMARK  status: ('A' for Active; 'I' for Inactive)
REMARK    1  A    between atoms: C_1  and  N_2
REMARK    2  A    between atoms: C_9  and  O_10
REMARK    3  A    between atoms: C_9  and  C_29
REMARK    4  A    between atoms: C_12  and  C_28
REMARK    5  A    between atoms: C_13  and  C_23
REMARK    6  A    between atoms: C_13  and  O_24
REMARK    7  A    between atoms: O_24  and  C_25
REMARK    8  A    between atoms: C_25  and  C_27
REMARK    9  A    between atoms: C_29  and  O_30
REMARK   10  A    between atoms: C_29  and  C_31
REMARK                            x       y       z     vdW  Elec       q    Type
REMARK                         _______ _______ _______ _____ _____    ______ ____
ROOT
ATOM      1  C   UNL     1       5.552  -0.118   1.651  1.00  0.00    +0.000 C 
ATOM      2  N   UNL     1       4.423  -0.489   0.797  1.00  0.00    +0.000 NA
ATOM      3  C   UNL     1       4.311   0.421  -0.352  1.00  0.00    +0.000 C 
ATOM      4  C   UNL     1       3.036   1.257  -0.216  1.00  0.00    +0.000 C 
ATOM      5  C   UNL     1       1.778   0.431  -0.467  1.00  0.00    +0.000 C 
ATOM      6  O   UNL     1       0.592   1.224  -0.283  1.00  0.00    +0.000 OA
ATOM      7  C   UNL     1       0.160   1.911  -1.374  1.00  0.00    +0.000 C 
ATOM      8  O   UNL     1       0.805   2.023  -2.408  1.00  0.00    +0.000 OA
ATOM      9  C   UNL     1      -1.256   2.474  -1.118  1.00  0.00    +0.000 C 
ATOM     10  C   UNL     1      -2.289   1.313  -1.208  1.00  0.00    +0.000 C 
ATOM     11  C   UNL     1      -2.425   0.333  -0.004  1.00  0.00    +0.000 C 
ATOM     12  C   UNL     1      -2.623  -1.179  -0.426  1.00  0.00    +0.000 C 
ATOM     13  C   UNL     1      -1.281  -1.685  -1.028  1.00  0.00    +0.000 C 
ATOM     14  O   UNL     1      -0.947  -1.538  -2.197  1.00  0.00    +0.000 OA
ATOM     15  O   UNL     1      -0.491  -2.252  -0.071  1.00  0.00    +0.000 OA
ATOM     16  C   UNL     1       0.749  -2.831  -0.505  1.00  0.00    +0.000 C 
ATOM     17  C   UNL     1       1.934  -2.066   0.015  1.00  0.00    +0.000 C 
ATOM     18  C   UNL     1       3.197  -2.536  -0.016  1.00  0.00    +0.000 C 
ATOM     19  C   UNL     1       4.493  -1.901   0.426  1.00  0.00    +0.000 C 
ATOM     20  C   UNL     1       1.651  -0.704   0.542  1.00  0.00    +0.000 C 
ATOM     21  O   UNL     1       1.246  -0.557   1.695  1.00  0.00    +0.000 OA
ATOM     22  C   UNL     1      -3.768  -1.351  -1.440  1.00  0.00    +0.000 C 
ATOM     23  C   UNL     1      -3.569   0.801   0.920  1.00  0.00    +0.000 C 
ENDROOT
BRANCH   9  24
ATOM     24  O   UNL     1      -1.617   3.367  -2.199  1.00  0.00    +0.000 OA
ATOM     25  H   UNL     1      -2.296   3.962  -1.821  1.00  0.00    +0.000 HD
ENDBRANCH   9  24
BRANCH   9  26
ATOM     26  C   UNL     1      -1.290   3.310   0.184  1.00  0.00    +0.000 C 
ATOM     27  C   UNL     1      -0.234   4.416   0.229  1.00  0.00    +0.000 C 
BRANCH  26  28
ATOM     28  O   UNL     1      -2.574   3.961   0.253  1.00  0.00    +0.000 OA
ATOM     29  H   UNL     1      -2.613   4.431   1.106  1.00  0.00    +0.000 HD
ENDBRANCH  26  28
ENDBRANCH   9  26
BRANCH  12  30
ATOM     30  O   UNL     1      -2.980  -1.894   0.791  1.00  0.00    +0.000 OA
BRANCH  30  31
ATOM     31  C   UNL     1      -3.048  -3.252   0.775  1.00  0.00    +0.000 C 
ATOM     32  O   UNL     1      -2.841  -3.966  -0.195  1.00  0.00    +0.000 OA
ATOM     33  C   UNL     1      -3.411  -3.759   2.137  1.00  0.00    +0.000 C 
ENDBRANCH  30  31
ENDBRANCH  12  30
TORSDOF 5
