REMARK  Name = /srv/my_project/app/compsite/backup/Dave/CORINA_stuff/newPDBs/SANC00388.pdb
AUTHORGENERATED BY OPEN BABEL 2.3.2
REMARK  22 active torsions:
REMARK  status: ('A' for Active; 'I' for Inactive)
REMARK    1  A    between atoms: C_2  and  O_3
REMARK    2  A    between atoms: O_3  and  C_4
REMARK    3  A    between atoms: C_6  and  O_8
REMARK    4  A    between atoms: C_9  and  O_11
REMARK    5  A    between atoms: C_12  and  C_14
REMARK    6  A    between atoms: C_14  and  O_15
REMARK    7  A    between atoms: C_17  and  O_19
REMARK    8  A    between atoms: O_19  and  C_20
REMARK    9  A    between atoms: C_24  and  C_25
REMARK   10  A    between atoms: C_35  and  C_36
REMARK   11  A    between atoms: C_44  and  O_46
REMARK   12  A    between atoms: C_47  and  C_48
REMARK   13  A    between atoms: C_49  and  C_50
REMARK   14  A    between atoms: C_49  and  C_51
REMARK   15  A    between atoms: C_52  and  C_54
REMARK   16  A    between atoms: C_59  and  C_61
REMARK   17  A    between atoms: C_62  and  O_64
REMARK   18  A    between atoms: O_64  and  C_65
REMARK   19  A    between atoms: C_65  and  C_67
REMARK   20  A    between atoms: C_70  and  O_71
REMARK   21  A    between atoms: C_74  and  O_76
REMARK   22  A    between atoms: C_77  and  O_79
REMARK                            x       y       z     vdW  Elec       q    Type
REMARK                         _______ _______ _______ _____ _____    ______ ____
ROOT
ATOM      1  C   UNL     1       4.193  -1.993   2.437  1.00  0.00    +0.000 C 
ATOM      2  C   UNL     1       5.392  -2.885   2.832  1.00  0.00    +0.000 C 
ATOM      3  C   UNL     1       5.001  -4.008   3.798  1.00  0.00    +0.000 C 
ATOM      4  C   UNL     1       3.981  -3.499   4.832  1.00  0.00    +0.000 C 
ATOM      5  O   UNL     1       2.780  -2.970   4.248  1.00  0.00    +0.000 OA
ATOM      6  C   UNL     1       2.849  -2.631   2.861  1.00  0.00    +0.000 C 
ENDROOT
BRANCH   3   7
ATOM      7  O   UNL     1       4.429  -5.096   3.054  1.00  0.00    +0.000 OA
ATOM      8  H   UNL     1       5.168  -5.617   2.685  1.00  0.00    +0.000 HD
ENDBRANCH   3   7
BRANCH   2   9
ATOM      9  O   UNL     1       6.417  -2.085   3.453  1.00  0.00    +0.000 OA
ATOM     10  H   UNL     1       6.572  -1.328   2.837  1.00  0.00    +0.000 HD
ENDBRANCH   2   9
BRANCH   6  11
ATOM     11  O   UNL     1       1.832  -1.644   2.597  1.00  0.00    +0.000 OA
BRANCH  11  12
ATOM     12  C   UNL     1       0.510  -2.202   2.549  1.00  0.00    +0.000 C 
ATOM     13  C   UNL     1      -0.467  -1.063   2.883  1.00  0.00    +0.000 C 
ATOM     14  C   UNL     1      -0.746  -0.201   1.650  1.00  0.00    +0.000 C 
ATOM     15  C   UNL     1      -1.463  -0.990   0.505  1.00  0.00    +0.000 C 
ATOM     16  C   UNL     1      -0.890  -0.489  -0.844  1.00  0.00    +0.000 C 
ATOM     17  C   UNL     1      -1.126  -2.483   0.642  1.00  0.00    +0.000 C 
ATOM     18  C   UNL     1      -2.018  -3.467   0.437  1.00  0.00    +0.000 C 
ATOM     19  C   UNL     1      -3.448  -3.248   0.061  1.00  0.00    +0.000 C 
ATOM     20  C   UNL     1      -3.779  -1.802  -0.334  1.00  0.00    +0.000 C 
ATOM     21  C   UNL     1      -3.028  -0.781   0.579  1.00  0.00    +0.000 C 
ATOM     22  C   UNL     1      -3.492   0.678   0.302  1.00  0.00    +0.000 C 
ATOM     23  C   UNL     1      -5.022   0.859   0.289  1.00  0.00    +0.000 C 
ATOM     24  C   UNL     1      -5.687  -0.126  -0.679  1.00  0.00    +0.000 C 
ATOM     25  C   UNL     1      -5.289  -1.549  -0.245  1.00  0.00    +0.000 C 
ATOM     26  C   UNL     1      -6.244  -2.468  -1.012  1.00  0.00    +0.000 C 
ATOM     27  C   UNL     1      -7.516  -1.616  -1.232  1.00  0.00    +0.000 C 
ATOM     28  O   UNL     1      -7.712  -1.512  -2.642  1.00  0.00    +0.000 OA
ATOM     29  C   UNL     1      -8.769  -0.627  -3.003  1.00  0.00    +0.000 C 
ATOM     30  C   UNL     1      -8.423   0.818  -2.575  1.00  0.00    +0.000 C 
ATOM     31  C   UNL     1      -8.101   0.921  -1.060  1.00  0.00    +0.000 C 
ATOM     32  C   UNL     1      -9.364   1.005  -0.179  1.00  0.00    +0.000 C 
ATOM     33  C   UNL     1      -7.226  -0.252  -0.561  1.00  0.00    +0.000 C 
ATOM     34  C   UNL     1       0.263  -2.797   1.147  1.00  0.00    +0.000 C 
BRANCH  30  35
ATOM     35  C   UNL     1      -9.463   1.820  -3.046  1.00  0.00    +0.000 C 
ATOM     36  C   UNL     1      -9.247   3.062  -3.523  1.00  0.00    +0.000 C 
ATOM     37  C   UNL     1      -7.900   3.724  -3.646  1.00  0.00    +0.000 C 
ATOM     38  C   UNL     1     -10.401   3.923  -3.970  1.00  0.00    +0.000 C 
ENDBRANCH  30  35
BRANCH  24  39
ATOM     39  C   UNL     1      -5.253   0.189  -2.119  1.00  0.00    +0.000 C 
ATOM     40  O   UNL     1      -4.956   1.313  -2.516  1.00  0.00    +0.000 OA
ENDBRANCH  24  39
BRANCH  29  41
ATOM     41  O   UNL     1      -9.990  -1.092  -2.454  1.00  0.00    +0.000 OA
ATOM     42  H   UNL     1     -10.236  -1.859  -2.998  1.00  0.00    +0.000 HD
ENDBRANCH  29  41
ENDBRANCH  11  12
ENDBRANCH   6  11
BRANCH   4  43
ATOM     43  C   UNL     1       4.538  -2.434   5.796  1.00  0.00    +0.000 C 
BRANCH  43  44
ATOM     44  O   UNL     1       5.884  -2.687   6.181  1.00  0.00    +0.000 OA
ATOM     45  H   UNL     1       6.442  -2.365   5.439  1.00  0.00    +0.000 HD
ENDBRANCH  43  44
ENDBRANCH   4  43
BRANCH   1  46
ATOM     46  O   UNL     1       4.173  -1.811   1.001  1.00  0.00    +0.000 OA
BRANCH  46  47
ATOM     47  C   UNL     1       5.124  -0.886   0.460  1.00  0.00    +0.000 C 
ATOM     48  O   UNL     1       6.067  -0.363   1.393  1.00  0.00    +0.000 OA
ATOM     49  C   UNL     1       7.126   0.384   0.754  1.00  0.00    +0.000 C 
ATOM     50  C   UNL     1       8.317  -0.550   0.529  1.00  0.00    +0.000 C 
ATOM     51  C   UNL     1       6.696   1.103  -0.548  1.00  0.00    +0.000 C 
ATOM     52  C   UNL     1       5.213   1.490  -0.453  1.00  0.00    +0.000 C 
ATOM     53  C   UNL     1       4.335   0.248  -0.236  1.00  0.00    +0.000 C 
BRANCH  53  54
ATOM     54  O   UNL     1       3.846  -0.220  -1.518  1.00  0.00    +0.000 OA
ATOM     55  H   UNL     1       3.235  -0.957  -1.316  1.00  0.00    +0.000 HD
ENDBRANCH  53  54
BRANCH  52  56
ATOM     56  O   UNL     1       4.801   2.178  -1.645  1.00  0.00    +0.000 OA
ATOM     57  H   UNL     1       4.345   1.503  -2.197  1.00  0.00    +0.000 HD
ENDBRANCH  52  56
BRANCH  51  58
ATOM     58  O   UNL     1       7.478   2.306  -0.707  1.00  0.00    +0.000 OA
BRANCH  58  59
ATOM     59  C   UNL     1       8.496   2.252  -1.599  1.00  0.00    +0.000 C 
ATOM     60  O   UNL     1       8.865   1.262  -2.215  1.00  0.00    +0.000 OA
BRANCH  59  61
ATOM     61  C   UNL     1       9.156   3.579  -1.711  1.00  0.00    +0.000 A 
ATOM     62  C   UNL     1      10.440   3.634  -2.276  1.00  0.00    +0.000 A 
ATOM     63  C   UNL     1      11.095   4.859  -2.421  1.00  0.00    +0.000 A 
ATOM     64  C   UNL     1      10.459   6.027  -2.009  1.00  0.00    +0.000 A 
ATOM     65  C   UNL     1       9.184   5.989  -1.452  1.00  0.00    +0.000 A 
ATOM     66  C   UNL     1       8.526   4.765  -1.303  1.00  0.00    +0.000 A 
BRANCH  64  67
ATOM     67  O   UNL     1      11.054   7.247  -2.145  1.00  0.00    +0.000 OA
ATOM     68  H   UNL     1      11.928   7.123  -2.553  1.00  0.00    +0.000 HD
ENDBRANCH  64  67
ENDBRANCH  59  61
ENDBRANCH  58  59
ENDBRANCH  51  58
ENDBRANCH  46  47
ENDBRANCH   1  46
TORSDOF 17
