REMARK  Name = /srv/my_project/app/compsite/backup/Dave/CORINA_stuff/newPDBs/SANC00105.pdb
AUTHORGENERATED BY OPEN BABEL 2.3.2
REMARK  3 active torsions:
REMARK  status: ('A' for Active; 'I' for Inactive)
REMARK    1  A    between atoms: C_6  and  C_7
REMARK    2  A    between atoms: C_15  and  O_16
REMARK    3  A    between atoms: C_18  and  O_19
REMARK                            x       y       z     vdW  Elec       q    Type
REMARK                         _______ _______ _______ _____ _____    ______ ____
ROOT
ATOM      1  O   UNL     1       1.727   2.901  -0.053  1.00  0.00    +0.000 OA
ATOM      2  C   UNL     1       1.198   1.793   0.007  1.00  0.00    +0.000 C 
ATOM      3  C   UNL     1       2.035   0.583   0.090  1.00  0.00    +0.000 A 
ATOM      4  C   UNL     1       1.402  -0.661   0.137  1.00  0.00    +0.000 A 
ATOM      5  O   UNL     1       0.042  -0.819   0.070  1.00  0.00    +0.000 OA
ATOM      6  C   UNL     1      -0.618   0.268  -0.600  1.00  0.00    +0.000 C 
ATOM      7  C   UNL     1      -0.289   1.597   0.067  1.00  0.00    +0.000 C 
ATOM      8  C   UNL     1       2.160  -1.821   0.288  1.00  0.00    +0.000 A 
ATOM      9  C   UNL     1       3.548  -1.731   0.357  1.00  0.00    +0.000 A 
ATOM     10  C   UNL     1       4.193  -0.499   0.288  1.00  0.00    +0.000 A 
ATOM     11  C   UNL     1       3.431   0.659   0.159  1.00  0.00    +0.000 A 
ENDROOT
BRANCH   6  12
ATOM     12  C   UNL     1      -2.115   0.023  -0.582  1.00  0.00    +0.000 A 
ATOM     13  C   UNL     1      -2.758  -0.498   0.552  1.00  0.00    +0.000 A 
ATOM     14  C   UNL     1      -4.140  -0.692   0.560  1.00  0.00    +0.000 A 
ATOM     15  C   UNL     1      -4.898  -0.363  -0.561  1.00  0.00    +0.000 A 
ATOM     16  C   UNL     1      -4.276   0.161  -1.692  1.00  0.00    +0.000 A 
ATOM     17  C   UNL     1      -2.893   0.355  -1.703  1.00  0.00    +0.000 A 
ENDBRANCH   6  12
BRANCH   9  18
ATOM     18  O   UNL     1       4.251  -2.892   0.494  1.00  0.00    +0.000 OA
ATOM     19  H   UNL     1       5.199  -2.682   0.535  1.00  0.00    +0.000 HD
ENDBRANCH   9  18
BRANCH  11  20
ATOM     20  O   UNL     1       4.116   1.844   0.114  1.00  0.00    +0.000 OA
ATOM     21  H   UNL     1       3.460   2.575   0.042  1.00  0.00    +0.000 HD
ENDBRANCH  11  20
TORSDOF 3
