REMARK  Name = /srv/my_project/app/compsite/backup/Dave/CORINA_stuff/newPDBs/SANC00634.pdb
AUTHORGENERATED BY OPEN BABEL 2.3.2
REMARK  1 active torsions:
REMARK  status: ('A' for Active; 'I' for Inactive)
REMARK    1  A    between atoms: C_1  and  N_2
REMARK                            x       y       z     vdW  Elec       q    Type
REMARK                         _______ _______ _______ _____ _____    ______ ____
ROOT
ATOM      1  C   UNL     1      -3.101  -1.771   0.313  1.00  0.00    +0.000 C 
ATOM      2  N   UNL     1      -1.850  -1.031   0.196  1.00  0.00    +0.000 N 
ATOM      3  C   UNL     1      -0.787  -1.719  -0.549  1.00  0.00    +0.000 C 
ATOM      4  C   UNL     1       0.558  -1.067  -0.355  1.00  0.00    +0.000 A 
ATOM      5  C   UNL     1       1.732  -1.842  -0.381  1.00  0.00    +0.000 A 
ATOM      6  C   UNL     1       2.934  -1.192  -0.231  1.00  0.00    +0.000 A 
ATOM      7  C   UNL     1       2.999   0.168  -0.066  1.00  0.00    +0.000 A 
ATOM      8  C   UNL     1       1.866   0.957  -0.049  1.00  0.00    +0.000 A 
ATOM      9  C   UNL     1       0.609   0.344  -0.210  1.00  0.00    +0.000 A 
ATOM     10  C   UNL     1      -0.674   1.085  -0.207  1.00  0.00    +0.000 A 
ATOM     11  C   UNL     1      -1.887   0.367   0.008  1.00  0.00    +0.000 A 
ATOM     12  C   UNL     1      -3.087   1.101   0.075  1.00  0.00    +0.000 A 
ATOM     13  C   UNL     1      -3.116   2.484  -0.112  1.00  0.00    +0.000 A 
ATOM     14  C   UNL     1      -1.940   3.172  -0.364  1.00  0.00    +0.000 A 
ATOM     15  C   UNL     1      -0.731   2.479  -0.410  1.00  0.00    +0.000 A 
ATOM     16  O   UNL     1       4.277   0.613   0.072  1.00  0.00    +0.000 OA
ATOM     17  C   UNL     1       5.007  -0.628  -0.020  1.00  0.00    +0.000 C 
ATOM     18  O   UNL     1       4.160  -1.778  -0.222  1.00  0.00    +0.000 OA
ENDROOT
TORSDOF 0
