REMARK  Name = SANCDB_00981_minRM1.pdb
AUTHORGENERATED BY OPEN BABEL 2.3.2
REMARK  13 active torsions:
REMARK  status: ('A' for Active; 'I' for Inactive)
REMARK    1  A    between atoms: C_1  and  C_2
REMARK    2  A    between atoms: C_2  and  C_11
REMARK    3  A    between atoms: C_5  and  C_7
REMARK    4  A    between atoms: C_7  and  C_8
REMARK    5  A    between atoms: C_7  and  C_9
REMARK    6  A    between atoms: C_7  and  O_10
REMARK    7  A    between atoms: C_14  and  C_34
REMARK    8  A    between atoms: C_16  and  O_33
REMARK    9  A    between atoms: C_19  and  C_32
REMARK   10  A    between atoms: C_23  and  C_31
REMARK   11  A    between atoms: C_26  and  O_30
REMARK   12  A    between atoms: C_27  and  C_28
REMARK   13  A    between atoms: C_27  and  C_29
REMARK                            x       y       z     vdW  Elec       q    Type
REMARK                         _______ _______ _______ _____ _____    ______ ____
ROOT
ATOM      1  C   UNL     1       2.743  -1.023  -1.536  1.00  0.00    +0.000 C 
ATOM      2  C   UNL     1       2.338  -2.422  -2.080  1.00  0.00    +0.000 C 
ATOM      3  C   UNL     1       0.887  -2.663  -1.635  1.00  0.00    +0.000 C 
ATOM      4  C   UNL     1       0.285  -1.250  -1.505  1.00  0.00    +0.000 C 
ATOM      5  C   UNL     1       1.470  -0.525  -0.799  1.00  0.00    +0.000 C 
ATOM      6  C   UNL     1       1.190   0.979  -0.710  1.00  0.00    +0.000 C 
ATOM      7  C   UNL     1      -0.100   1.226   0.097  1.00  0.00    +0.000 C 
ATOM      8  C   UNL     1      -1.329   0.459  -0.456  1.00  0.00    +0.000 C 
ATOM      9  C   UNL     1      -1.038  -1.090  -0.615  1.00  0.00    +0.000 C 
ATOM     10  C   UNL     1      -2.260  -1.755  -1.298  1.00  0.00    +0.000 C 
ATOM     11  C   UNL     1      -3.600  -1.432  -0.628  1.00  0.00    +0.000 C 
ATOM     12  C   UNL     1      -3.861   0.088  -0.558  1.00  0.00    +0.000 C 
ATOM     13  C   UNL     1      -2.722   0.863   0.196  1.00  0.00    +0.000 C 
ATOM     14  C   UNL     1      -2.943   2.400  -0.037  1.00  0.00    +0.000 C 
ATOM     15  C   UNL     1      -4.389   2.832  -0.295  1.00  0.00    +0.000 C 
ATOM     16  C   UNL     1      -5.413   1.933   0.383  1.00  0.00    +0.000 C 
ATOM     17  C   UNL     1      -5.338   0.465  -0.135  1.00  0.00    +0.000 C 
ATOM     18  C   UNL     1      -5.920  -0.457   0.960  1.00  0.00    +0.000 C 
ATOM     19  C   UNL     1      -6.251   0.288  -1.381  1.00  0.00    +0.000 C 
ATOM     20  C   UNL     1      -2.741   0.617   1.723  1.00  0.00    +0.000 C 
ATOM     21  C   UNL     1      -0.845  -1.787   0.763  1.00  0.00    +0.000 C 
ATOM     22  C   UNL     1       0.067  -0.737  -2.970  1.00  0.00    +0.000 C 
ENDROOT
BRANCH   1  24
ATOM     23  C   UNL     1       5.240  -1.394  -1.653  1.00  0.00    +0.000 C 
ATOM     24  C   UNL     1       4.064  -1.066  -0.713  1.00  0.00    +0.000 C 
ATOM     25  C   UNL     1       4.055  -2.033   0.485  1.00  0.00    +0.000 C 
ATOM     26  C   UNL     1       4.169  -1.139   1.699  1.00  0.00    +0.000 C 
ATOM     27  C   UNL     1       4.909   0.068   1.154  1.00  0.00    +0.000 C 
ATOM     28  O   UNL     1       4.335   0.248  -0.166  1.00  0.00    +0.000 OA
BRANCH  27  29
ATOM     29  C   UNL     1       4.806   1.347   2.025  1.00  0.00    +0.000 C 
ATOM     30  C   UNL     1       5.548   1.154   3.351  1.00  0.00    +0.000 C 
ATOM     31  C   UNL     1       5.376   2.565   1.291  1.00  0.00    +0.000 C 
BRANCH  29  32
ATOM     32  O   UNL     1       3.444   1.632   2.363  1.00  0.00    +0.000 OA
ATOM     33  H   UNL     1       2.942   1.732   1.523  1.00  0.00    +0.000 HD
ENDBRANCH  29  32
ENDBRANCH  27  29
ENDBRANCH   1  24
BRANCH  16  34
ATOM     34  O   UNL     1      -6.719   2.478   0.190  1.00  0.00    +0.000 OA
ATOM     35  H   UNL     1      -6.719   3.378   0.558  1.00  0.00    +0.000 HD
ENDBRANCH  16  34
BRANCH   6  36
ATOM     36  O   UNL     1       2.238   1.678  -0.053  1.00  0.00    +0.000 OA
ATOM     37  H   UNL     1       3.077   1.372  -0.463  1.00  0.00    +0.000 HD
ENDBRANCH   6  36
TORSDOF 5
