REMARK  Name = /srv/my_project/app/compsite/backup/Dave/CORINA_stuff/newPDBs/SANC00436.pdb
AUTHORGENERATED BY OPEN BABEL 2.3.2
REMARK  5 active torsions:
REMARK  status: ('A' for Active; 'I' for Inactive)
REMARK    1  A    between atoms: C_4  and  C_5
REMARK    2  A    between atoms: C_11  and  O_12
REMARK    3  A    between atoms: C_14  and  C_16
REMARK    4  A    between atoms: C_24  and  C_28
REMARK    5  A    between atoms: C_26  and  O_27
REMARK                            x       y       z     vdW  Elec       q    Type
REMARK                         _______ _______ _______ _____ _____    ______ ____
ROOT
ATOM      1  O   UNL     1       3.621  -2.474  -1.617  1.00  0.00    +0.000 OA
ATOM      2  C   UNL     1       2.983  -1.657  -0.966  1.00  0.00    +0.000 C 
ATOM      3  C   UNL     1       1.513  -1.750  -0.908  1.00  0.00    +0.000 C 
ATOM      4  C   UNL     1       0.770  -0.915  -0.171  1.00  0.00    +0.000 C 
ATOM      5  C   UNL     1       1.425   0.141   0.654  1.00  0.00    +0.000 C 
ATOM      6  O   UNL     1       0.780   0.845   1.427  1.00  0.00    +0.000 OA
ATOM      7  C   UNL     1       2.887   0.311   0.553  1.00  0.00    +0.000 A 
ATOM      8  C   UNL     1       3.639  -0.562  -0.231  1.00  0.00    +0.000 A 
ATOM      9  C   UNL     1       5.031  -0.412  -0.322  1.00  0.00    +0.000 A 
ATOM     10  C   UNL     1       5.679   0.622   0.364  1.00  0.00    +0.000 A 
ATOM     11  C   UNL     1       4.922   1.486   1.164  1.00  0.00    +0.000 A 
ATOM     12  C   UNL     1       3.538   1.332   1.254  1.00  0.00    +0.000 A 
ATOM     13  C   UNL     1       7.171   0.765   0.293  1.00  0.00    +0.000 C 
ENDROOT
BRANCH   4  14
ATOM     14  C   UNL     1      -0.684  -0.983  -0.152  1.00  0.00    +0.000 C 
ATOM     15  C   UNL     1      -1.343  -2.011   0.397  1.00  0.00    +0.000 C 
ATOM     16  C   UNL     1      -2.815  -2.065   0.460  1.00  0.00    +0.000 C 
ATOM     17  O   UNL     1      -3.370  -3.048   0.932  1.00  0.00    +0.000 OA
ATOM     18  C   UNL     1      -3.574  -0.910  -0.052  1.00  0.00    +0.000 A 
ATOM     19  C   UNL     1      -2.910   0.166  -0.638  1.00  0.00    +0.000 A 
ATOM     20  C   UNL     1      -3.656   1.249  -1.119  1.00  0.00    +0.000 A 
ATOM     21  C   UNL     1      -5.047   1.255  -1.014  1.00  0.00    +0.000 A 
ATOM     22  C   UNL     1      -5.719   0.171  -0.438  1.00  0.00    +0.000 A 
ATOM     23  C   UNL     1      -4.973  -0.908   0.052  1.00  0.00    +0.000 A 
ATOM     24  C   UNL     1      -7.212   0.192  -0.295  1.00  0.00    +0.000 C 
ATOM     25  C   UNL     1      -1.440   0.154  -0.755  1.00  0.00    +0.000 C 
ATOM     26  O   UNL     1      -0.867   1.055  -1.364  1.00  0.00    +0.000 OA
BRANCH  20  27
ATOM     27  O   UNL     1      -3.091   2.347  -1.710  1.00  0.00    +0.000 OA
ATOM     28  H   UNL     1      -2.117   2.219  -1.746  1.00  0.00    +0.000 HD
ENDBRANCH  20  27
ENDBRANCH   4  14
BRANCH  12  29
ATOM     29  O   UNL     1       2.885   2.225   2.061  1.00  0.00    +0.000 OA
ATOM     30  H   UNL     1       1.925   2.008   2.058  1.00  0.00    +0.000 HD
ENDBRANCH  12  29
TORSDOF 3
