REMARK  Name = SANCDB_00836_minRM1.pdb
AUTHORGENERATED BY OPEN BABEL 2.3.2
REMARK  12 active torsions:
REMARK  status: ('A' for Active; 'I' for Inactive)
REMARK    1  A    between atoms: C_1  and  C_2
REMARK    2  A    between atoms: C_3  and  O_33
REMARK    3  A    between atoms: C_4  and  O_32
REMARK    4  A    between atoms: C_5  and  O_31
REMARK    5  A    between atoms: C_6  and  O_8
REMARK    6  A    between atoms: O_8  and  C_9
REMARK    7  A    between atoms: C_10  and  C_22
REMARK    8  A    between atoms: C_14  and  O_21
REMARK    9  A    between atoms: C_16  and  O_20
REMARK   10  A    between atoms: C_24  and  O_30
REMARK   11  A    between atoms: C_25  and  O_29
REMARK   12  A    between atoms: C_26  and  O_28
REMARK                            x       y       z     vdW  Elec       q    Type
REMARK                         _______ _______ _______ _____ _____    ______ ____
ROOT
ATOM      1  C   UNL     1      -0.432  -1.179   0.665  1.00  0.00    +0.000 A 
ATOM      2  C   UNL     1      -1.546  -0.423   0.736  1.00  0.00    +0.000 A 
ATOM      3  O   UNL     1      -2.824  -0.860   0.435  1.00  0.00    +0.000 OA
ATOM      4  C   UNL     1      -3.000  -2.168   0.068  1.00  0.00    +0.000 A 
ATOM      5  C   UNL     1      -4.305  -2.569  -0.227  1.00  0.00    +0.000 A 
ATOM      6  C   UNL     1      -4.543  -3.888  -0.605  1.00  0.00    +0.000 A 
ATOM      7  C   UNL     1      -3.502  -4.806  -0.692  1.00  0.00    +0.000 A 
ATOM      8  C   UNL     1      -2.204  -4.401  -0.394  1.00  0.00    +0.000 A 
ATOM      9  C   UNL     1      -1.949  -3.078  -0.014  1.00  0.00    +0.000 A 
ATOM     10  C   UNL     1      -0.593  -2.614   0.305  1.00  0.00    +0.000 A 
ATOM     11  O   UNL     1       0.345  -3.405   0.268  1.00  0.00    +0.000 OA
ENDROOT
BRANCH   2  12
ATOM     12  C   UNL     1      -1.500   1.005   1.098  1.00  0.00    +0.000 A 
ATOM     13  C   UNL     1      -1.939   1.965   0.166  1.00  0.00    +0.000 A 
ATOM     14  C   UNL     1      -1.890   3.317   0.493  1.00  0.00    +0.000 A 
ATOM     15  C   UNL     1      -1.418   3.718   1.736  1.00  0.00    +0.000 A 
ATOM     16  C   UNL     1      -0.989   2.775   2.659  1.00  0.00    +0.000 A 
ATOM     17  C   UNL     1      -1.026   1.421   2.353  1.00  0.00    +0.000 A 
BRANCH  16  18
ATOM     18  O   UNL     1      -0.523   3.175   3.878  1.00  0.00    +0.000 OA
ATOM     19  H   UNL     1      -0.599   4.151   3.863  1.00  0.00    +0.000 HD
ENDBRANCH  16  18
BRANCH  15  20
ATOM     20  O   UNL     1      -1.365   5.046   2.066  1.00  0.00    +0.000 OA
ATOM     21  H   UNL     1      -1.713   5.503   1.273  1.00  0.00    +0.000 HD
ENDBRANCH  15  20
BRANCH  14  22
ATOM     22  O   UNL     1      -2.290   4.289  -0.381  1.00  0.00    +0.000 OA
ATOM     23  H   UNL     1      -2.557   3.858  -1.212  1.00  0.00    +0.000 HD
ENDBRANCH  14  22
ENDBRANCH   2  12
BRANCH   8  24
ATOM     24  O   UNL     1      -1.222  -5.350  -0.493  1.00  0.00    +0.000 OA
ATOM     25  H   UNL     1      -0.367  -4.938  -0.232  1.00  0.00    +0.000 HD
ENDBRANCH   8  24
BRANCH   6  26
ATOM     26  O   UNL     1      -5.801  -4.324  -0.902  1.00  0.00    +0.000 OA
ATOM     27  H   UNL     1      -6.431  -3.596  -0.778  1.00  0.00    +0.000 HD
ENDBRANCH   6  26
BRANCH   1  28
ATOM     28  O   UNL     1       0.820  -0.681   0.984  1.00  0.00    +0.000 OA
BRANCH  28  34
ATOM     29  C   UNL     1       4.870   0.597   1.399  1.00  0.00    +0.000 C 
ATOM     30  C   UNL     1       3.604   0.673   0.553  1.00  0.00    +0.000 C 
ATOM     31  C   UNL     1       3.894   1.217  -0.859  1.00  0.00    +0.000 C 
ATOM     32  C   UNL     1       2.709   0.964  -1.813  1.00  0.00    +0.000 C 
ATOM     33  C   UNL     1       1.454   0.505  -1.066  1.00  0.00    +0.000 C 
ATOM     34  C   UNL     1       1.754  -0.685  -0.112  1.00  0.00    +0.000 C 
ATOM     35  O   UNL     1       3.082  -0.646   0.437  1.00  0.00    +0.000 OA
BRANCH  33  36
ATOM     36  O   UNL     1       0.438   0.151  -2.026  1.00  0.00    +0.000 OA
ATOM     37  H   UNL     1       0.922  -0.335  -2.728  1.00  0.00    +0.000 HD
ENDBRANCH  33  36
BRANCH  32  38
ATOM     38  O   UNL     1       3.030  -0.045  -2.791  1.00  0.00    +0.000 OA
ATOM     39  H   UNL     1       3.777   0.299  -3.314  1.00  0.00    +0.000 HD
ENDBRANCH  32  38
BRANCH  31  40
ATOM     40  O   UNL     1       4.160   2.621  -0.817  1.00  0.00    +0.000 OA
ATOM     41  H   UNL     1       4.988   2.756  -0.323  1.00  0.00    +0.000 HD
ENDBRANCH  31  40
ENDBRANCH  28  34
ENDBRANCH   1  28
TORSDOF 11
