REMARK  Name = /srv/my_project/app/compsite/backup/Dave/CORINA_stuff/newPDBs/SANC00456.pdb
AUTHORGENERATED BY OPEN BABEL 2.3.2
REMARK  11 active torsions:
REMARK  status: ('A' for Active; 'I' for Inactive)
REMARK    1  A    between atoms: C_4  and  O_6
REMARK    2  A    between atoms: O_6  and  C_7
REMARK    3  A    between atoms: C_7  and  C_9
REMARK    4  A    between atoms: C_9  and  C_10
REMARK    5  A    between atoms: C_11  and  C_12
REMARK    6  A    between atoms: C_13  and  C_14
REMARK    7  A    between atoms: C_15  and  C_17
REMARK    8  A    between atoms: C_17  and  C_18
REMARK    9  A    between atoms: C_22  and  O_23
REMARK   10  A    between atoms: C_24  and  C_25
REMARK   11  A    between atoms: C_30  and  O_32
REMARK                            x       y       z     vdW  Elec       q    Type
REMARK                         _______ _______ _______ _____ _____    ______ ____
ROOT
ATOM      1  C   UNL     1      -1.403  -0.425   0.381  1.00  0.00    +0.000 C 
ATOM      2  C   UNL     1      -0.124  -0.938  -0.289  1.00  0.00    +0.000 C 
ATOM      3  C   UNL     1       1.126  -0.386   0.406  1.00  0.00    +0.000 C 
ATOM      4  C   UNL     1       1.183   1.182   0.410  1.00  0.00    +0.000 C 
ATOM      5  C   UNL     1       1.594   1.691  -0.989  1.00  0.00    +0.000 C 
ATOM      6  C   UNL     1       2.239   1.621   1.481  1.00  0.00    +0.000 C 
ATOM      7  C   UNL     1       1.493   1.681   2.816  1.00  0.00    +0.000 C 
ATOM      8  C   UNL     1       0.003   1.542   2.498  1.00  0.00    +0.000 C 
ATOM      9  C   UNL     1      -0.161   1.762   0.972  1.00  0.00    +0.000 C 
ATOM     10  C   UNL     1      -1.494   1.136   0.381  1.00  0.00    +0.000 C 
ATOM     11  C   UNL     1      -1.784   1.685  -1.047  1.00  0.00    +0.000 C 
ATOM     12  C   UNL     1      -2.728   1.539   1.251  1.00  0.00    +0.000 C 
ATOM     13  C   UNL     1      -3.968   0.738   0.961  1.00  0.00    +0.000 C 
ATOM     14  C   UNL     1      -3.965  -0.462   0.354  1.00  0.00    +0.000 C 
ATOM     15  C   UNL     1      -5.251  -1.202   0.066  1.00  0.00    +0.000 C 
ATOM     16  C   UNL     1      -5.117  -2.221  -1.079  1.00  0.00    +0.000 C 
ATOM     17  C   UNL     1      -4.161  -1.718  -2.156  1.00  0.00    +0.000 C 
ATOM     18  C   UNL     1      -2.747  -1.476  -1.616  1.00  0.00    +0.000 C 
ATOM     19  C   UNL     1      -2.695  -1.149  -0.106  1.00  0.00    +0.000 C 
ENDROOT
BRANCH   6  20
ATOM     20  C   UNL     1       3.069   2.875   1.179  1.00  0.00    +0.000 C 
ATOM     21  C   UNL     1       2.487   4.256   1.336  1.00  0.00    +0.000 C 
ATOM     22  O   UNL     1       4.213   2.749   0.724  1.00  0.00    +0.000 OA
ENDBRANCH   6  20
BRANCH   9  23
ATOM     23  O   UNL     1      -0.191   3.187   0.831  1.00  0.00    +0.000 OA
ATOM     24  H   UNL     1      -0.233   3.421  -0.111  1.00  0.00    +0.000 HD
ENDBRANCH   9  23
BRANCH  16  25
ATOM     25  O   UNL     1      -6.390  -2.459  -1.675  1.00  0.00    +0.000 OA
ATOM     26  H   UNL     1      -6.982  -2.791  -0.979  1.00  0.00    +0.000 HD
ENDBRANCH  16  25
BRANCH   3  27
ATOM     27  O   UNL     1       2.303  -0.892  -0.258  1.00  0.00    +0.000 OA
BRANCH  27  28
ATOM     28  C   UNL     1       2.735  -2.124   0.114  1.00  0.00    +0.000 C 
ATOM     29  O   UNL     1       2.178  -2.853   0.922  1.00  0.00    +0.000 OA
BRANCH  28  30
ATOM     30  C   UNL     1       3.981  -2.514  -0.619  1.00  0.00    +0.000 C 
ATOM     31  C   UNL     1       4.272  -3.985  -0.557  1.00  0.00    +0.000 C 
ATOM     32  C   UNL     1       4.736  -1.585  -1.241  1.00  0.00    +0.000 C 
ATOM     33  C   UNL     1       6.016  -1.794  -1.986  1.00  0.00    +0.000 C 
ENDBRANCH  28  30
ENDBRANCH  27  28
ENDBRANCH   3  27
TORSDOF 6
