REMARK  Name = SANCDB_00838_minRM1.pdb
AUTHORGENERATED BY OPEN BABEL 2.3.2
REMARK  12 active torsions:
REMARK  status: ('A' for Active; 'I' for Inactive)
REMARK    1  A    between atoms: C_3  and  O_33
REMARK    2  A    between atoms: C_4  and  O_32
REMARK    3  A    between atoms: C_6  and  C_7
REMARK    4  A    between atoms: C_8  and  O_20
REMARK    5  A    between atoms: C_12  and  O_19
REMARK    6  A    between atoms: C_14  and  O_18
REMARK    7  A    between atoms: O_20  and  C_21
REMARK    8  A    between atoms: C_22  and  O_31
REMARK    9  A    between atoms: C_23  and  O_30
REMARK   10  A    between atoms: C_24  and  O_29
REMARK   11  A    between atoms: C_25  and  C_27
REMARK   12  A    between atoms: C_27  and  O_28
REMARK                            x       y       z     vdW  Elec       q    Type
REMARK                         _______ _______ _______ _____ _____    ______ ____
ROOT
ATOM      1  C   UNL     1      -1.708   0.154  -0.436  1.00  0.00    +0.000 A 
ATOM      2  C   UNL     1      -0.855   0.577   0.520  1.00  0.00    +0.000 A 
ATOM      3  C   UNL     1      -1.294   0.485   1.942  1.00  0.00    +0.000 A 
ATOM      4  O   UNL     1      -0.686   1.091   2.817  1.00  0.00    +0.000 OA
ATOM      5  C   UNL     1      -2.494  -0.334   2.215  1.00  0.00    +0.000 A 
ATOM      6  C   UNL     1      -2.909  -0.690   3.505  1.00  0.00    +0.000 A 
ATOM      7  C   UNL     1      -4.071  -1.444   3.690  1.00  0.00    +0.000 A 
ATOM      8  C   UNL     1      -4.814  -1.844   2.586  1.00  0.00    +0.000 A 
ATOM      9  C   UNL     1      -4.415  -1.507   1.299  1.00  0.00    +0.000 A 
ATOM     10  C   UNL     1      -3.250  -0.755   1.121  1.00  0.00    +0.000 A 
ATOM     11  O   UNL     1      -2.920  -0.464  -0.177  1.00  0.00    +0.000 OA
ENDROOT
BRANCH   1  17
ATOM     12  C   UNL     1      -1.040   1.523  -2.441  1.00  0.00    +0.000 A 
ATOM     13  C   UNL     1      -0.794   1.646  -3.814  1.00  0.00    +0.000 A 
ATOM     14  C   UNL     1      -0.976   0.542  -4.634  1.00  0.00    +0.000 A 
ATOM     15  C   UNL     1      -1.401  -0.669  -4.097  1.00  0.00    +0.000 A 
ATOM     16  C   UNL     1      -1.642  -0.801  -2.736  1.00  0.00    +0.000 A 
ATOM     17  C   UNL     1      -1.452   0.298  -1.885  1.00  0.00    +0.000 A 
BRANCH  15  18
ATOM     18  O   UNL     1      -1.581  -1.750  -4.912  1.00  0.00    +0.000 OA
ATOM     19  H   UNL     1      -1.350  -1.423  -5.804  1.00  0.00    +0.000 HD
ENDBRANCH  15  18
BRANCH  14  20
ATOM     20  O   UNL     1      -0.748   0.596  -5.981  1.00  0.00    +0.000 OA
ATOM     21  H   UNL     1      -0.413   1.485  -6.192  1.00  0.00    +0.000 HD
ENDBRANCH  14  20
ENDBRANCH   1  17
BRANCH   8  22
ATOM     22  O   UNL     1      -5.940  -2.577   2.813  1.00  0.00    +0.000 OA
ATOM     23  H   UNL     1      -6.362  -2.788   1.963  1.00  0.00    +0.000 HD
ENDBRANCH   8  22
BRANCH   6  24
ATOM     24  O   UNL     1      -2.183  -0.326   4.603  1.00  0.00    +0.000 OA
ATOM     25  H   UNL     1      -2.641  -0.600   5.413  1.00  0.00    +0.000 HD
ENDBRANCH   6  24
BRANCH   2  26
ATOM     26  O   UNL     1       0.356   1.204   0.277  1.00  0.00    +0.000 OA
BRANCH  26  27
ATOM     27  C   UNL     1       1.396   0.276  -0.080  1.00  0.00    +0.000 C 
ATOM     28  C   UNL     1       2.615   1.090  -0.572  1.00  0.00    +0.000 C 
ATOM     29  C   UNL     1       3.861   0.234  -0.423  1.00  0.00    +0.000 C 
ATOM     30  C   UNL     1       4.104  -0.137   1.044  1.00  0.00    +0.000 C 
ATOM     31  C   UNL     1       2.788  -0.285   1.843  1.00  0.00    +0.000 C 
ATOM     32  O   UNL     1       1.707  -0.655   0.974  1.00  0.00    +0.000 OA
BRANCH  30  33
ATOM     33  O   UNL     1       4.832  -1.385   1.021  1.00  0.00    +0.000 OA
ATOM     34  H   UNL     1       4.184  -2.101   0.890  1.00  0.00    +0.000 HD
ENDBRANCH  30  33
BRANCH  29  35
ATOM     35  O   UNL     1       4.993   0.943  -0.958  1.00  0.00    +0.000 OA
ATOM     36  H   UNL     1       5.775   0.405  -0.723  1.00  0.00    +0.000 HD
ENDBRANCH  29  35
BRANCH  28  37
ATOM     37  O   UNL     1       2.469   1.478  -1.949  1.00  0.00    +0.000 OA
ATOM     38  H   UNL     1       3.370   1.743  -2.227  1.00  0.00    +0.000 HD
ENDBRANCH  28  37
BRANCH  31  39
ATOM     39  C   UNL     1       2.444   0.921   2.734  1.00  0.00    +0.000 C 
BRANCH  39  40
ATOM     40  O   UNL     1       3.553   1.298   3.542  1.00  0.00    +0.000 OA
ATOM     41  H   UNL     1       3.215   1.952   4.180  1.00  0.00    +0.000 HD
ENDBRANCH  39  40
ENDBRANCH  31  39
ENDBRANCH  26  27
ENDBRANCH   2  26
TORSDOF 12
