REMARK  Name = /srv/my_project/app/compsite/backup/Dave/CORINA_stuff/newPDBs/SANC00640.pdb
AUTHORGENERATED BY OPEN BABEL 2.3.2
REMARK  3 active torsions:
REMARK  status: ('A' for Active; 'I' for Inactive)
REMARK    1  A    between atoms: C_1  and  O_2
REMARK    2  A    between atoms: O_2  and  C_3
REMARK    3  A    between atoms: C_20  and  O_22
REMARK                            x       y       z     vdW  Elec       q    Type
REMARK                         _______ _______ _______ _____ _____    ______ ____
ROOT
ATOM      1  C   UNL     1       2.852   0.757  -1.233  1.00  0.00    +0.000 C 
ATOM      2  C   UNL     1       2.655   0.422   0.252  1.00  0.00    +0.000 C 
ATOM      3  C   UNL     1       1.158   0.399   0.597  1.00  0.00    +0.000 C 
ATOM      4  C   UNL     1       0.352  -0.631  -0.245  1.00  0.00    +0.000 C 
ATOM      5  C   UNL     1       0.798  -0.632  -1.696  1.00  0.00    +0.000 C 
ATOM      6  C   UNL     1       1.898   0.011  -2.127  1.00  0.00    +0.000 C 
ATOM      7  C   UNL     1      -1.146  -0.316  -0.024  1.00  0.00    +0.000 A 
ATOM      8  C   UNL     1      -2.136  -0.528  -0.998  1.00  0.00    +0.000 A 
ATOM      9  C   UNL     1      -3.448  -0.259  -0.665  1.00  0.00    +0.000 A 
ATOM     10  C   UNL     1      -3.808   0.197   0.580  1.00  0.00    +0.000 A 
ATOM     11  C   UNL     1      -2.877   0.410   1.571  1.00  0.00    +0.000 A 
ATOM     12  C   UNL     1      -1.530   0.145   1.276  1.00  0.00    +0.000 A 
ATOM     13  C   UNL     1      -0.478   0.399   2.347  1.00  0.00    +0.000 C 
ATOM     14  N   UNL     1       0.894  -0.037   1.995  1.00  0.00    +0.000 NA
ATOM     15  C   UNL     1       0.969  -1.520   1.944  1.00  0.00    +0.000 C 
ATOM     16  C   UNL     1       0.639  -1.967   0.505  1.00  0.00    +0.000 C 
ATOM     17  O   UNL     1      -5.148   0.397   0.693  1.00  0.00    +0.000 OA
ATOM     18  C   UNL     1      -5.591   0.023  -0.628  1.00  0.00    +0.000 C 
ATOM     19  O   UNL     1      -4.519  -0.408  -1.492  1.00  0.00    +0.000 OA
ENDROOT
BRANCH   1  21
ATOM     20  C   UNL     1       3.767   2.950  -1.284  1.00  0.00    +0.000 C 
ATOM     21  O   UNL     1       2.614   2.144  -1.484  1.00  0.00    +0.000 OA
ENDBRANCH   1  21
BRANCH  16  22
ATOM     22  O   UNL     1       1.749  -2.704  -0.022  1.00  0.00    +0.000 OA
ATOM     23  H   UNL     1       1.540  -2.921  -0.947  1.00  0.00    +0.000 HD
ENDBRANCH  16  22
TORSDOF 2
