REMARK  Name = /srv/my_project/app/compsite/backup/Dave/CORINA_stuff/newPDBs/SANC00688.pdb
AUTHORGENERATED BY OPEN BABEL 2.3.2
REMARK  6 active torsions:
REMARK  status: ('A' for Active; 'I' for Inactive)
REMARK    1  A    between atoms: C_1  and  O_2
REMARK    2  A    between atoms: O_2  and  C_3
REMARK    3  A    between atoms: C_5  and  O_6
REMARK    4  A    between atoms: C_10  and  C_12
REMARK    5  A    between atoms: C_12  and  C_13
REMARK    6  A    between atoms: C_16  and  O_17
REMARK                            x       y       z     vdW  Elec       q    Type
REMARK                         _______ _______ _______ _____ _____    ______ ____
ROOT
ATOM      1  C   UNL     1       4.301   0.293   0.620  1.00  0.00    +0.000 A 
ATOM      2  C   UNL     1       4.269  -0.237  -0.671  1.00  0.00    +0.000 A 
ATOM      3  C   UNL     1       3.044  -0.525  -1.274  1.00  0.00    +0.000 A 
ATOM      4  C   UNL     1       1.845  -0.279  -0.598  1.00  0.00    +0.000 A 
ATOM      5  C   UNL     1       0.537  -0.620  -1.188  1.00  0.00    +0.000 C 
ATOM      6  O   UNL     1       0.493  -1.071  -2.331  1.00  0.00    +0.000 OA
ATOM      7  C   UNL     1      -0.678  -0.447  -0.301  1.00  0.00    +0.000 C 
ATOM      8  C   UNL     1      -0.410   0.755   0.597  1.00  0.00    +0.000 C 
ATOM      9  O   UNL     1       0.751   0.552   1.411  1.00  0.00    +0.000 OA
ATOM     10  C   UNL     1       1.875   0.272   0.681  1.00  0.00    +0.000 A 
ATOM     11  C   UNL     1       3.100   0.541   1.292  1.00  0.00    +0.000 A 
ENDROOT
BRANCH   1  13
ATOM     12  C   UNL     1       6.677   0.364   0.696  1.00  0.00    +0.000 C 
ATOM     13  O   UNL     1       5.427   0.612   1.329  1.00  0.00    +0.000 OA
ENDBRANCH   1  13
BRANCH   3  14
ATOM     14  O   UNL     1       3.092  -1.057  -2.535  1.00  0.00    +0.000 OA
ATOM     15  H   UNL     1       2.168  -1.219  -2.834  1.00  0.00    +0.000 HD
ENDBRANCH   3  14
BRANCH   7  16
ATOM     16  C   UNL     1      -1.938  -0.270  -1.161  1.00  0.00    +0.000 C 
BRANCH  16  17
ATOM     17  C   UNL     1      -3.212  -0.174  -0.355  1.00  0.00    +0.000 A 
ATOM     18  C   UNL     1      -3.700  -1.292   0.337  1.00  0.00    +0.000 A 
ATOM     19  C   UNL     1      -4.871  -1.200   1.090  1.00  0.00    +0.000 A 
ATOM     20  C   UNL     1      -5.558   0.005   1.151  1.00  0.00    +0.000 A 
ATOM     21  C   UNL     1      -5.095   1.124   0.468  1.00  0.00    +0.000 A 
ATOM     22  C   UNL     1      -3.923   1.033  -0.286  1.00  0.00    +0.000 A 
BRANCH  20  23
ATOM     23  O   UNL     1      -6.698   0.049   1.899  1.00  0.00    +0.000 OA
ATOM     24  H   UNL     1      -7.075   0.941   1.836  1.00  0.00    +0.000 HD
ENDBRANCH  20  23
ENDBRANCH  16  17
ENDBRANCH   7  16
TORSDOF 5
