REMARK  Name = SANCDB_01000_minRM1.pdb
AUTHORGENERATED BY OPEN BABEL 2.3.2
REMARK  4 active torsions:
REMARK  status: ('A' for Active; 'I' for Inactive)
REMARK    1  A    between atoms: C_1  and  C_2
REMARK    2  A    between atoms: C_4  and  C_24
REMARK    3  A    between atoms: C_21  and  C_22
REMARK    4  A    between atoms: C_21  and  O_23
REMARK                            x       y       z     vdW  Elec       q    Type
REMARK                         _______ _______ _______ _____ _____    ______ ____
ROOT
ATOM      1  C   UNL     1       4.247  -0.837   0.741  1.00  0.00    +0.000 C 
ATOM      2  C   UNL     1       2.775  -0.386   0.809  1.00  0.00    +0.000 C 
ATOM      3  C   UNL     1       1.841  -1.590   0.514  1.00  0.00    +0.000 C 
ATOM      4  C   UNL     1       1.489  -1.975  -0.911  1.00  0.00    +0.000 C 
ATOM      5  C   UNL     1       0.218  -2.175  -1.317  1.00  0.00    +0.000 C 
ATOM      6  C   UNL     1      -0.904  -2.152  -0.367  1.00  0.00    +0.000 C 
ATOM      7  O   UNL     1      -1.182  -3.086   0.369  1.00  0.00    +0.000 OA
ATOM      8  O   UNL     1      -1.517  -0.950  -0.425  1.00  0.00    +0.000 OA
ATOM      9  C   UNL     1      -2.539  -0.761   0.571  1.00  0.00    +0.000 C 
ATOM     10  C   UNL     1      -3.834  -1.431   0.122  1.00  0.00    +0.000 C 
ATOM     11  C   UNL     1      -4.382  -0.428  -0.879  1.00  0.00    +0.000 C 
ATOM     12  N   UNL     1      -4.134   0.876  -0.254  1.00  0.00    +0.000 NA
ATOM     13  C   UNL     1      -2.965   0.714   0.668  1.00  0.00    +0.000 C 
ATOM     14  C   UNL     1      -2.000   1.784   0.284  1.00  0.00    +0.000 C 
ATOM     15  C   UNL     1      -2.471   2.462  -0.770  1.00  0.00    +0.000 C 
ATOM     16  C   UNL     1      -3.779   1.921  -1.230  1.00  0.00    +0.000 C 
ATOM     17  C   UNL     1      -0.788   2.127   1.082  1.00  0.00    +0.000 C 
ATOM     18  O   UNL     1       0.301   1.203   0.959  1.00  0.00    +0.000 OA
ATOM     19  C   UNL     1       1.048   1.359  -0.166  1.00  0.00    +0.000 C 
ATOM     20  O   UNL     1       0.682   1.934  -1.190  1.00  0.00    +0.000 OA
ATOM     21  C   UNL     1       2.518   0.922   0.013  1.00  0.00    +0.000 C 
ATOM     22  C   UNL     1       3.216   2.117   0.691  1.00  0.00    +0.000 C 
ATOM     23  C   UNL     1       2.617  -2.287  -1.857  1.00  0.00    +0.000 C 
ENDROOT
BRANCH  21  24
ATOM     24  O   UNL     1       3.116   0.827  -1.291  1.00  0.00    +0.000 OA
ATOM     25  H   UNL     1       2.633   1.458  -1.864  1.00  0.00    +0.000 HD
ENDBRANCH  21  24
TORSDOF 1
