REMARK  Name = /srv/my_project/app/compsite/backup/Dave/CORINA_stuff/newPDBs/SANC00689.pdb
AUTHORGENERATED BY OPEN BABEL 2.3.2
REMARK  6 active torsions:
REMARK  status: ('A' for Active; 'I' for Inactive)
REMARK    1  A    between atoms: C_1  and  O_2
REMARK    2  A    between atoms: O_2  and  C_3
REMARK    3  A    between atoms: C_5  and  O_6
REMARK    4  A    between atoms: C_10  and  C_11
REMARK    5  A    between atoms: C_11  and  C_12
REMARK    6  A    between atoms: C_15  and  O_16
REMARK                            x       y       z     vdW  Elec       q    Type
REMARK                         _______ _______ _______ _____ _____    ______ ____
ROOT
ATOM      1  C   UNL     1       4.019  -0.843   0.251  1.00  0.00    +0.000 A 
ATOM      2  C   UNL     1       3.410  -1.560   1.283  1.00  0.00    +0.000 A 
ATOM      3  C   UNL     1       2.126  -1.225   1.724  1.00  0.00    +0.000 A 
ATOM      4  C   UNL     1       1.431  -0.162   1.135  1.00  0.00    +0.000 A 
ATOM      5  C   UNL     1       0.072   0.260   1.560  1.00  0.00    +0.000 A 
ATOM      6  O   UNL     1      -0.514  -0.224   2.520  1.00  0.00    +0.000 OA
ATOM      7  C   UNL     1      -0.565   1.342   0.764  1.00  0.00    +0.000 A 
ATOM      8  C   UNL     1       0.168   1.926  -0.192  1.00  0.00    +0.000 A 
ATOM      9  O   UNL     1       1.451   1.604  -0.545  1.00  0.00    +0.000 OA
ATOM     10  C   UNL     1       2.046   0.548   0.101  1.00  0.00    +0.000 A 
ATOM     11  C   UNL     1       3.333   0.214  -0.341  1.00  0.00    +0.000 A 
ENDROOT
BRANCH   1  13
ATOM     12  C   UNL     1       5.937  -0.584  -1.133  1.00  0.00    +0.000 C 
ATOM     13  O   UNL     1       5.273  -1.275  -0.081  1.00  0.00    +0.000 OA
ENDBRANCH   1  13
BRANCH   3  14
ATOM     14  O   UNL     1       1.568  -1.961   2.731  1.00  0.00    +0.000 OA
ATOM     15  H   UNL     1       2.190  -2.639   3.038  1.00  0.00    +0.000 HD
ENDBRANCH   3  14
BRANCH   7  16
ATOM     16  C   UNL     1      -1.965   1.757   1.111  1.00  0.00    +0.000 C 
BRANCH  16  17
ATOM     17  C   UNL     1      -3.016   0.949   0.383  1.00  0.00    +0.000 A 
ATOM     18  C   UNL     1      -3.455  -0.278   0.902  1.00  0.00    +0.000 A 
ATOM     19  C   UNL     1      -4.410  -1.038   0.223  1.00  0.00    +0.000 A 
ATOM     20  C   UNL     1      -4.925  -0.571  -0.981  1.00  0.00    +0.000 A 
ATOM     21  C   UNL     1      -4.500   0.639  -1.515  1.00  0.00    +0.000 A 
ATOM     22  C   UNL     1      -3.545   1.398  -0.837  1.00  0.00    +0.000 A 
BRANCH  20  23
ATOM     23  O   UNL     1      -5.858  -1.281  -1.677  1.00  0.00    +0.000 OA
ATOM     24  H   UNL     1      -6.051  -2.096  -1.184  1.00  0.00    +0.000 HD
ENDBRANCH  20  23
ENDBRANCH  16  17
ENDBRANCH   7  16
TORSDOF 5
