REMARK  Name = /srv/my_project/app/compsite/backup/Dave/CORINA_stuff/newPDBs/SANC00182.pdb
AUTHORGENERATED BY OPEN BABEL 2.3.2
REMARK  6 active torsions:
REMARK  status: ('A' for Active; 'I' for Inactive)
REMARK    1  A    between atoms: C_1  and  C_2
REMARK    2  A    between atoms: C_2  and  C_3
REMARK    3  A    between atoms: C_2  and  C_4
REMARK    4  A    between atoms: C_7  and  C_8
REMARK    5  A    between atoms: C_10  and  C_11
REMARK    6  A    between atoms: C_11  and  C_12
REMARK                            x       y       z     vdW  Elec       q    Type
REMARK                         _______ _______ _______ _____ _____    ______ ____
ROOT
ATOM      1  C   UNL     1      -0.941   0.156  -0.095  1.00  0.00    +0.000 A 
ATOM      2  C   UNL     1      -1.677   1.199   0.504  1.00  0.00    +0.000 A 
ATOM      3  C   UNL     1      -1.248   2.526   0.449  1.00  0.00    +0.000 A 
ATOM      4  C   UNL     1      -0.059   2.853  -0.198  1.00  0.00    +0.000 A 
ATOM      5  C   UNL     1       0.393   4.279  -0.290  1.00  0.00    +0.000 C 
ATOM      6  C   UNL     1       0.677   1.832  -0.808  1.00  0.00    +0.000 A 
ATOM      7  C   UNL     1       0.264   0.481  -0.762  1.00  0.00    +0.000 A 
ENDROOT
BRANCH   1   9
ATOM      8  C   UNL     1      -2.858  -1.409  -0.635  1.00  0.00    +0.000 C 
ATOM      9  C   UNL     1      -1.472  -1.270   0.007  1.00  0.00    +0.000 C 
ATOM     10  C   UNL     1      -1.493  -1.757   1.459  1.00  0.00    +0.000 C 
ENDBRANCH   1   9
BRANCH   7  11
ATOM     11  C   UNL     1       1.152  -0.539  -1.446  1.00  0.00    +0.000 C 
BRANCH  11  12
ATOM     12  C   UNL     1       1.968  -1.206  -0.388  1.00  0.00    +0.000 A 
ATOM     13  C   UNL     1       2.038  -2.605  -0.115  1.00  0.00    +0.000 A 
ATOM     14  C   UNL     1       2.929  -2.763   0.919  1.00  0.00    +0.000 A 
ATOM     15  O   UNL     1       3.428  -1.561   1.300  1.00  0.00    +0.000 OA
ATOM     16  C   UNL     1       2.848  -0.625   0.506  1.00  0.00    +0.000 A 
ENDBRANCH  11  12
ENDBRANCH   7  11
TORSDOF 3
