REMARK  Name = SANCDB_01066_minRM1.pdb
AUTHORGENERATED BY OPEN BABEL 2.3.2
REMARK  6 active torsions:
REMARK  status: ('A' for Active; 'I' for Inactive)
REMARK    1  A    between atoms: C_1  and  C_2
REMARK    2  A    between atoms: C_5  and  C_14
REMARK    3  A    between atoms: C_8  and  C_12
REMARK    4  A    between atoms: C_8  and  O_13
REMARK    5  A    between atoms: C_14  and  C_15
REMARK    6  A    between atoms: C_14  and  C_16
REMARK                            x       y       z     vdW  Elec       q    Type
REMARK                         _______ _______ _______ _____ _____    ______ ____
ROOT
ATOM      1  C   UNL     1       3.740  -1.850   0.701  1.00  0.00    +0.000 C 
ATOM      2  C   UNL     1       2.659  -0.841   0.435  1.00  0.00    +0.000 C 
ATOM      3  C   UNL     1       1.393  -1.208   0.162  1.00  0.00    +0.000 C 
ATOM      4  C   UNL     1       0.253  -0.235  -0.082  1.00  0.00    +0.000 C 
ATOM      5  C   UNL     1      -1.096  -0.753   0.531  1.00  0.00    +0.000 C 
ATOM      6  C   UNL     1      -1.874   0.408   1.197  1.00  0.00    +0.000 C 
ATOM      7  C   UNL     1      -1.895   1.653   0.314  1.00  0.00    +0.000 C 
ATOM      8  C   UNL     1      -0.478   2.221   0.081  1.00  0.00    +0.000 C 
ATOM      9  C   UNL     1       0.622   1.182   0.431  1.00  0.00    +0.000 C 
ATOM     10  C   UNL     1       2.030   1.568  -0.056  1.00  0.00    +0.000 C 
ATOM     11  C   UNL     1       3.082   0.603   0.498  1.00  0.00    +0.000 C 
ATOM     12  C   UNL     1      -0.388   2.786  -1.343  1.00  0.00    +0.000 C 
ENDROOT
BRANCH   5  13
ATOM     13  C   UNL     1      -1.970  -1.518  -0.530  1.00  0.00    +0.000 C 
ATOM     14  C   UNL     1      -1.237  -2.699  -1.181  1.00  0.00    +0.000 C 
ATOM     15  C   UNL     1      -3.282  -2.054   0.063  1.00  0.00    +0.000 C 
ENDBRANCH   5  13
BRANCH   8  16
ATOM     16  O   UNL     1      -0.330   3.331   0.982  1.00  0.00    +0.000 OA
ATOM     17  H   UNL     1       0.519   3.765   0.797  1.00  0.00    +0.000 HD
ENDBRANCH   8  16
TORSDOF 2
