REMARK  Name = SANCDB_01005_minRM1.pdb
AUTHORGENERATED BY OPEN BABEL 2.3.2
REMARK  5 active torsions:
REMARK  status: ('A' for Active; 'I' for Inactive)
REMARK    1  A    between atoms: C_1  and  C_2
REMARK    2  A    between atoms: C_2  and  C_24
REMARK    3  A    between atoms: C_9  and  O_23
REMARK    4  A    between atoms: C_19  and  O_22
REMARK    5  A    between atoms: C_20  and  O_21
REMARK                            x       y       z     vdW  Elec       q    Type
REMARK                         _______ _______ _______ _____ _____    ______ ____
ROOT
ATOM      1  C   UNL     1      -4.801   0.582  -0.843  1.00  0.00    +0.000 C 
ATOM      2  C   UNL     1      -3.801  -0.516  -0.461  1.00  0.00    +0.000 C 
ATOM      3  C   UNL     1      -2.770  -0.655  -1.555  1.00  0.00    +0.000 C 
ATOM      4  C   UNL     1      -1.462  -0.469  -1.363  1.00  0.00    +0.000 C 
ATOM      5  C   UNL     1      -0.998  -0.114  -0.025  1.00  0.00    +0.000 A 
ATOM      6  C   UNL     1      -1.942   0.019   1.001  1.00  0.00    +0.000 A 
ATOM      7  O   UNL     1      -3.286  -0.163   0.837  1.00  0.00    +0.000 OA
ATOM      8  C   UNL     1      -1.543   0.358   2.295  1.00  0.00    +0.000 A 
ATOM      9  C   UNL     1      -0.198   0.568   2.574  1.00  0.00    +0.000 A 
ATOM     10  C   UNL     1       0.756   0.439   1.561  1.00  0.00    +0.000 A 
ATOM     11  C   UNL     1       0.365   0.099   0.263  1.00  0.00    +0.000 A 
ATOM     12  O   UNL     1       1.262  -0.041  -0.775  1.00  0.00    +0.000 OA
ATOM     13  C   UNL     1       2.599   0.159  -0.532  1.00  0.00    +0.000 A 
ATOM     14  C   UNL     1       3.115   0.499   0.714  1.00  0.00    +0.000 A 
ATOM     15  C   UNL     1       2.183   0.655   1.834  1.00  0.00    +0.000 A 
ATOM     16  O   UNL     1       2.567   0.954   2.959  1.00  0.00    +0.000 OA
ATOM     17  C   UNL     1       4.490   0.690   0.895  1.00  0.00    +0.000 A 
ATOM     18  C   UNL     1       5.360   0.536  -0.186  1.00  0.00    +0.000 A 
ATOM     19  C   UNL     1       4.848   0.195  -1.437  1.00  0.00    +0.000 A 
ATOM     20  C   UNL     1       3.474   0.007  -1.610  1.00  0.00    +0.000 A 
ATOM     21  C   UNL     1      -4.539  -1.849  -0.287  1.00  0.00    +0.000 C 
ENDROOT
BRANCH  20  22
ATOM     22  O   UNL     1       2.994  -0.329  -2.849  1.00  0.00    +0.000 OA
ATOM     23  H   UNL     1       2.029  -0.416  -2.777  1.00  0.00    +0.000 HD
ENDBRANCH  20  22
BRANCH  19  24
ATOM     24  O   UNL     1       5.684   0.040  -2.506  1.00  0.00    +0.000 OA
ATOM     25  H   UNL     1       6.598   0.203  -2.229  1.00  0.00    +0.000 HD
ENDBRANCH  19  24
BRANCH   9  26
ATOM     26  O   UNL     1       0.121   0.897   3.864  1.00  0.00    +0.000 OA
ATOM     27  H   UNL     1       1.097   1.014   3.917  1.00  0.00    +0.000 HD
ENDBRANCH   9  26
TORSDOF 3
