REMARK  Name = /srv/my_project/app/compsite/backup/Dave/CORINA_stuff/newPDBs/SANC00202.pdb
AUTHORGENERATED BY OPEN BABEL 2.3.2
REMARK  7 active torsions:
REMARK  status: ('A' for Active; 'I' for Inactive)
REMARK    1  A    between atoms: C_2  and  C_3
REMARK    2  A    between atoms: C_2  and  C_4
REMARK    3  A    between atoms: C_4  and  C_6
REMARK    4  A    between atoms: C_6  and  C_7
REMARK    5  A    between atoms: C_7  and  C_9
REMARK    6  A    between atoms: C_9  and  C_10
REMARK    7  A    between atoms: C_11  and  C_12
REMARK                            x       y       z     vdW  Elec       q    Type
REMARK                         _______ _______ _______ _____ _____    ______ ____
ROOT
ATOM      1  C   UNL     1      -0.446   0.308  -0.187  1.00  0.00    +0.000 C 
ATOM      2 BR   UNL     1      -0.018   1.210  -1.883  1.00  0.00    +0.000 Br
ENDROOT
BRANCH   1   3
ATOM      3  C   UNL     1      -1.960   0.148  -0.154  1.00  0.00    +0.000 C 
ATOM      4  C   UNL     1      -2.561  -0.922  -1.034  1.00  0.00    +0.000 C 
ATOM      5  C   UNL     1      -2.692   0.936   0.660  1.00  0.00    +0.000 C 
BRANCH   5   6
ATOM      6  C   UNL     1      -4.162   0.858   0.861  1.00  0.00    +0.000 C 
ATOM      7  O   UNL     1      -4.852  -0.107   0.567  1.00  0.00    +0.000 OA
ENDBRANCH   5   6
ENDBRANCH   1   3
BRANCH   1   8
ATOM      8  C   UNL     1       0.320  -1.016  -0.062  1.00  0.00    +0.000 C 
BRANCH   8   9
ATOM      9  C   UNL     1       1.719  -0.948   0.573  1.00  0.00    +0.000 C 
ATOM     10 BR   UNL     1       1.567  -0.576   2.494  1.00  0.00    +0.000 Br
BRANCH   9  12
ATOM     11  C   UNL     1       3.493  -0.553  -1.108  1.00  0.00    +0.000 C 
ATOM     12  C   UNL     1       2.751  -0.064  -0.095  1.00  0.00    +0.000 C 
ATOM     13  C   UNL     1       2.968   1.355   0.361  1.00  0.00    +0.000 C 
ENDBRANCH   9  12
ENDBRANCH   8   9
ENDBRANCH   1   8
TORSDOF 5
