REMARK  Name = SANCDB_00933_minRM1.pdb
AUTHORGENERATED BY OPEN BABEL 2.3.2
REMARK  8 active torsions:
REMARK  status: ('A' for Active; 'I' for Inactive)
REMARK    1  A    between atoms: C_1  and  C_2
REMARK    2  A    between atoms: C_6  and  C_25
REMARK    3  A    between atoms: C_10  and  C_20
REMARK    4  A    between atoms: C_10  and  O_21
REMARK    5  A    between atoms: C_11  and  C_12
REMARK    6  A    between atoms: C_11  and  O_19
REMARK    7  A    between atoms: C_12  and  C_13
REMARK    8  A    between atoms: C_13  and  C_14
REMARK                            x       y       z     vdW  Elec       q    Type
REMARK                         _______ _______ _______ _____ _____    ______ ____
ROOT
ATOM      1  C   UNL     1      -4.254   0.326  -1.226  1.00  0.00    +0.000 C 
ATOM      2  C   UNL     1      -3.363   0.306   0.028  1.00  0.00    +0.000 C 
ATOM      3  C   UNL     1      -3.292   1.701   0.662  1.00  0.00    +0.000 C 
ATOM      4  C   UNL     1      -2.190   2.576   0.071  1.00  0.00    +0.000 C 
ATOM      5  C   UNL     1      -0.828   1.889  -0.124  1.00  0.00    +0.000 C 
ATOM      6  C   UNL     1      -0.753   0.409   0.364  1.00  0.00    +0.000 C 
ATOM      7  C   UNL     1      -1.988  -0.290  -0.287  1.00  0.00    +0.000 C 
ATOM      8  C   UNL     1      -2.120  -1.763   0.045  1.00  0.00    +0.000 C 
ATOM      9  C   UNL     1      -0.907  -2.380   0.722  1.00  0.00    +0.000 C 
ATOM     10  C   UNL     1       0.463  -1.925   0.171  1.00  0.00    +0.000 C 
ATOM     11  C   UNL     1       0.538  -0.361  -0.181  1.00  0.00    +0.000 C 
ATOM     12  C   UNL     1       0.834  -2.816  -1.030  1.00  0.00    +0.000 C 
ATOM     13  O   UNL     1      -3.239  -1.875   0.934  1.00  0.00    +0.000 OA
ATOM     14  C   UNL     1      -3.948  -0.712   0.980  1.00  0.00    +0.000 C 
ATOM     15  O   UNL     1      -4.936  -0.549   1.678  1.00  0.00    +0.000 OA
ATOM     16  C   UNL     1      -0.755   0.417   1.920  1.00  0.00    +0.000 C 
ENDROOT
BRANCH  11  17
ATOM     17  O   UNL     1       0.507  -0.243  -1.624  1.00  0.00    +0.000 OA
ATOM     18  H   UNL     1       0.868   0.626  -1.874  1.00  0.00    +0.000 HD
ENDBRANCH  11  17
BRANCH  10  19
ATOM     19  O   UNL     1       1.409  -2.229   1.214  1.00  0.00    +0.000 OA
ATOM     20  H   UNL     1       1.366  -3.185   1.397  1.00  0.00    +0.000 HD
ENDBRANCH  10  19
BRANCH  11  21
ATOM     21  C   UNL     1       1.861   0.318   0.293  1.00  0.00    +0.000 C 
BRANCH  21  22
ATOM     22  C   UNL     1       3.147  -0.250  -0.330  1.00  0.00    +0.000 C 
BRANCH  22  23
ATOM     23  C   UNL     1       4.351   0.540   0.069  1.00  0.00    +0.000 A 
ATOM     24  C   UNL     1       5.070   0.425   1.242  1.00  0.00    +0.000 A 
ATOM     25  O   UNL     1       6.102   1.305   1.264  1.00  0.00    +0.000 OA
ATOM     26  C   UNL     1       6.057   1.994   0.096  1.00  0.00    +0.000 A 
ATOM     27  C   UNL     1       5.003   1.564  -0.674  1.00  0.00    +0.000 A 
ENDBRANCH  22  23
ENDBRANCH  21  22
ENDBRANCH  11  21
TORSDOF 5
