REMARK  Name = /srv/my_project/app/compsite/backup/Dave/CORINA_stuff/newPDBs/SANC00217.pdb
AUTHORGENERATED BY OPEN BABEL 2.3.2
REMARK  7 active torsions:
REMARK  status: ('A' for Active; 'I' for Inactive)
REMARK    1  A    between atoms: C_1  and  C_2
REMARK    2  A    between atoms: C_2  and  C_7
REMARK    3  A    between atoms: C_3  and  C_4
REMARK    4  A    between atoms: C_7  and  C_9
REMARK    5  A    between atoms: C_10  and  C_11
REMARK    6  A    between atoms: C_11  and  C_12
REMARK    7  A    between atoms: C_11  and  C_14
REMARK                            x       y       z     vdW  Elec       q    Type
REMARK                         _______ _______ _______ _____ _____    ______ ____
ROOT
ATOM      1  C   UNL     1       1.067   0.893   0.371  1.00  0.00    +0.000 C 
ATOM      2 BR   UNL     1       0.774   2.596  -0.536  1.00  0.00    +0.000 Br
ENDROOT
BRANCH   1   4
ATOM      3  C   UNL     1       1.667  -0.640  -1.617  1.00  0.00    +0.000 C 
ATOM      4  C   UNL     1       2.129   0.131  -0.400  1.00  0.00    +0.000 C 
ATOM      5  C   UNL     1       3.438   0.094  -0.059  1.00  0.00    +0.000 C 
BRANCH   5   6
ATOM      6  C   UNL     1       4.130   0.809   1.066  1.00  0.00    +0.000 C 
ATOM      7 CL   UNL     1       5.608   1.588   0.456  1.00  0.00    +0.000 Cl
ATOM      8 CL   UNL     1       4.535  -0.363   2.338  1.00  0.00    +0.000 Cl
ENDBRANCH   5   6
ENDBRANCH   1   4
BRANCH   1   9
ATOM      9  C   UNL     1      -0.194   0.104   0.609  1.00  0.00    +0.000 C 
ATOM     10  C   UNL     1      -1.401   0.219   0.019  1.00  0.00    +0.000 C 
BRANCH  10  11
ATOM     11  C   UNL     1      -2.674  -0.582   0.281  1.00  0.00    +0.000 C 
ATOM     12  C   UNL     1      -3.101  -1.232  -1.047  1.00  0.00    +0.000 C 
ATOM     13 CL   UNL     1      -2.417  -1.933   1.447  1.00  0.00    +0.000 Cl
BRANCH  11  14
ATOM     14  C   UNL     1      -3.822   0.317   0.775  1.00  0.00    +0.000 C 
ATOM     15 BR   UNL     1      -3.420   1.261   2.439  1.00  0.00    +0.000 Br
ENDBRANCH  11  14
ENDBRANCH  10  11
ENDBRANCH   1   9
TORSDOF 5
