REMARK  Name = /srv/my_project/app/compsite/backup/Dave/CORINA_stuff/newPDBs/SANC00697.pdb
AUTHORGENERATED BY OPEN BABEL 2.3.2
REMARK  7 active torsions:
REMARK  status: ('A' for Active; 'I' for Inactive)
REMARK    1  A    between atoms: C_1  and  C_2
REMARK    2  A    between atoms: C_6  and  C_7
REMARK    3  A    between atoms: C_6  and  O_8
REMARK    4  A    between atoms: C_11  and  O_12
REMARK    5  A    between atoms: C_11  and  C_13
REMARK    6  A    between atoms: C_13  and  C_14
REMARK    7  A    between atoms: C_13  and  C_15
REMARK                            x       y       z     vdW  Elec       q    Type
REMARK                         _______ _______ _______ _____ _____    ______ ____
ROOT
ATOM      1  C   UNL     1       3.734  -0.282  -1.990  1.00  0.00    +0.000 C 
ATOM      2  C   UNL     1       3.357  -0.062  -0.552  1.00  0.00    +0.000 C 
ATOM      3  C   UNL     1       2.848  -1.007   0.265  1.00  0.00    +0.000 C 
ATOM      4  C   UNL     1       2.664  -2.470  -0.015  1.00  0.00    +0.000 C 
ATOM      5  C   UNL     1       1.313  -2.918  -0.584  1.00  0.00    +0.000 C 
ATOM      6  C   UNL     1       0.017  -2.615   0.214  1.00  0.00    +0.000 C 
ATOM      7  C   UNL     1       0.184  -2.856   1.716  1.00  0.00    +0.000 C 
ATOM      8  C   UNL     1      -0.589  -1.275  -0.155  1.00  0.00    +0.000 C 
ATOM      9  C   UNL     1      -1.464  -0.544   0.568  1.00  0.00    +0.000 C 
ATOM     10  C   UNL     1      -2.158   0.740   0.132  1.00  0.00    +0.000 C 
ATOM     11  C   UNL     1      -1.920   1.915   1.126  1.00  0.00    +0.000 C 
ATOM     12  C   UNL     1      -0.577   2.035   1.866  1.00  0.00    +0.000 C 
ATOM     13  C   UNL     1       0.652   2.381   1.104  1.00  0.00    +0.000 C 
ATOM     14  C   UNL     1       1.163   1.888  -0.020  1.00  0.00    +0.000 C 
ATOM     15  C   UNL     1       2.526   2.392  -0.278  1.00  0.00    +0.000 C 
ATOM     16  C   UNL     1       3.621   1.338  -0.015  1.00  0.00    +0.000 C 
ATOM     17  O   UNL     1       2.668   3.439   0.689  1.00  0.00    +0.000 OA
ATOM     18  C   UNL     1       1.626   3.381   1.569  1.00  0.00    +0.000 C 
ATOM     19  O   UNL     1       1.521   4.059   2.575  1.00  0.00    +0.000 OA
ENDROOT
BRANCH  10  20
ATOM     20  C   UNL     1      -3.707   0.487  -0.016  1.00  0.00    +0.000 C 
ATOM     21  C   UNL     1      -4.466   1.726  -0.520  1.00  0.00    +0.000 C 
ATOM     22  C   UNL     1      -4.065  -0.694  -0.937  1.00  0.00    +0.000 C 
ENDBRANCH  10  20
BRANCH   6  23
ATOM     23  O   UNL     1      -0.952  -3.583  -0.232  1.00  0.00    +0.000 OA
ATOM     24  H   UNL     1      -1.160  -3.387  -1.161  1.00  0.00    +0.000 HD
ENDBRANCH   6  23
BRANCH  10  25
ATOM     25  O   UNL     1      -1.647   1.158  -1.137  1.00  0.00    +0.000 OA
ATOM     26  H   UNL     1      -1.943   0.517  -1.802  1.00  0.00    +0.000 HD
ENDBRANCH  10  25
TORSDOF 3
