REMARK  Name = /srv/my_project/app/compsite/backup/Dave/CORINA_stuff/newPDBs/SANC00400.pdb
AUTHORGENERATED BY OPEN BABEL 2.3.2
REMARK  19 active torsions:
REMARK  status: ('A' for Active; 'I' for Inactive)
REMARK    1  A    between atoms: C_2  and  O_3
REMARK    2  A    between atoms: O_3  and  C_4
REMARK    3  A    between atoms: C_6  and  O_8
REMARK    4  A    between atoms: C_11  and  O_13
REMARK    5  A    between atoms: O_13  and  C_14
REMARK    6  A    between atoms: C_17  and  O_19
REMARK    7  A    between atoms: C_30  and  C_31
REMARK    8  A    between atoms: C_41  and  C_43
REMARK    9  A    between atoms: C_46  and  C_48
REMARK   10  A    between atoms: C_51  and  C_52
REMARK   11  A    between atoms: C_53  and  O_55
REMARK   12  A    between atoms: O_55  and  C_56
REMARK   13  A    between atoms: C_59  and  C_61
REMARK   14  A    between atoms: C_62  and  O_64
REMARK   15  A    between atoms: C_65  and  O_67
REMARK   16  A    between atoms: C_68  and  O_70
REMARK   17  A    between atoms: C_73  and  O_75
REMARK   18  A    between atoms: C_76  and  O_78
REMARK   19  A    between atoms: C_79  and  O_81
REMARK                            x       y       z     vdW  Elec       q    Type
REMARK                         _______ _______ _______ _____ _____    ______ ____
ROOT
ATOM      1  C   UNL     1      -3.714  -0.711  -1.802  1.00  0.00    +0.000 C 
ATOM      2  C   UNL     1      -2.382  -0.254  -2.412  1.00  0.00    +0.000 C 
ATOM      3  C   UNL     1      -1.359  -1.391  -2.314  1.00  0.00    +0.000 C 
ATOM      4  O   UNL     1      -1.565  -2.266  -1.201  1.00  0.00    +0.000 OA
ATOM      5  C   UNL     1      -2.111  -1.641  -0.037  1.00  0.00    +0.000 C 
ATOM      6  C   UNL     1      -3.524  -1.063  -0.309  1.00  0.00    +0.000 C 
ENDROOT
BRANCH   2   7
ATOM      7  O   UNL     1      -1.893   0.922  -1.740  1.00  0.00    +0.000 OA
ATOM      8  H   UNL     1      -1.448   0.628  -0.917  1.00  0.00    +0.000 HD
ENDBRANCH   2   7
BRANCH   1   9
ATOM      9  O   UNL     1      -4.720   0.319  -1.878  1.00  0.00    +0.000 OA
BRANCH   9  10
ATOM     10  C   UNL     1      -5.378   0.418  -3.139  1.00  0.00    +0.000 C 
ATOM     11  O   UNL     1      -4.625   1.179  -4.084  1.00  0.00    +0.000 OA
ATOM     12  C   UNL     1      -4.323   2.510  -3.655  1.00  0.00    +0.000 C 
ATOM     13  C   UNL     1      -5.251   3.074  -2.575  1.00  0.00    +0.000 C 
ATOM     14  C   UNL     1      -6.681   2.603  -2.838  1.00  0.00    +0.000 C 
ATOM     15  C   UNL     1      -6.771   1.069  -2.954  1.00  0.00    +0.000 C 
BRANCH  13  16
ATOM     16  O   UNL     1      -5.225   4.508  -2.564  1.00  0.00    +0.000 OA
ATOM     17  H   UNL     1      -4.312   4.773  -2.348  1.00  0.00    +0.000 HD
ENDBRANCH  13  16
BRANCH  14  18
ATOM     18  O   UNL     1      -7.531   3.080  -1.780  1.00  0.00    +0.000 OA
ATOM     19  H   UNL     1      -7.346   4.039  -1.727  1.00  0.00    +0.000 HD
ENDBRANCH  14  18
BRANCH  15  20
ATOM     20  O   UNL     1      -7.614   0.745  -4.080  1.00  0.00    +0.000 OA
ATOM     21  H   UNL     1      -7.122   0.987  -4.886  1.00  0.00    +0.000 HD
ENDBRANCH  15  20
ENDBRANCH   9  10
ENDBRANCH   1   9
BRANCH   5  22
ATOM     22  O   UNL     1      -1.224  -0.603   0.417  1.00  0.00    +0.000 OA
BRANCH  22  23
ATOM     23  C   UNL     1      -0.838  -0.722   1.804  1.00  0.00    +0.000 C 
ATOM     24  C   UNL     1      -2.059  -0.386   2.680  1.00  0.00    +0.000 C 
ATOM     25  C   UNL     1      -1.724  -0.347   4.162  1.00  0.00    +0.000 C 
ATOM     26  C   UNL     1      -0.629   0.675   4.438  1.00  0.00    +0.000 C 
ATOM     27  C   UNL     1       0.606   0.387   3.618  1.00  0.00    +0.000 C 
ATOM     28  C   UNL     1       1.802   0.316   4.229  1.00  0.00    +0.000 C 
ATOM     29  C   UNL     1       3.106   0.085   3.536  1.00  0.00    +0.000 C 
ATOM     30  C   UNL     1       3.017   0.225   2.010  1.00  0.00    +0.000 C 
ATOM     31  C   UNL     1       1.725  -0.474   1.485  1.00  0.00    +0.000 C 
ATOM     32  C   UNL     1       1.713  -0.660  -0.057  1.00  0.00    +0.000 C 
ATOM     33  C   UNL     1       3.040  -1.143  -0.667  1.00  0.00    +0.000 C 
ATOM     34  C   UNL     1       4.226  -0.293  -0.199  1.00  0.00    +0.000 C 
ATOM     35  C   UNL     1       4.062   1.154  -0.722  1.00  0.00    +0.000 C 
ATOM     36  C   UNL     1       4.253  -0.385   1.343  1.00  0.00    +0.000 C 
ATOM     37  C   UNL     1       5.631   0.163   1.695  1.00  0.00    +0.000 C 
ATOM     38  C   UNL     1       6.509  -0.552   0.669  1.00  0.00    +0.000 C 
ATOM     39  O   UNL     1       7.588   0.242   0.186  1.00  0.00    +0.000 OA
ATOM     40  C   UNL     1       7.836  -0.211  -1.161  1.00  0.00    +0.000 C 
ATOM     41  C   UNL     1       8.659   0.842  -1.921  1.00  0.00    +0.000 C 
ATOM     42  C   UNL     1      10.097   0.394  -2.169  1.00  0.00    +0.000 C 
ATOM     43  C   UNL     1      10.691  -0.333  -0.965  1.00  0.00    +0.000 C 
ATOM     44  C   UNL     1      11.041   0.637   0.167  1.00  0.00    +0.000 C 
ATOM     45  C   UNL     1       9.754  -1.444  -0.471  1.00  0.00    +0.000 C 
ATOM     46  O   UNL     1       8.502  -1.475  -1.157  1.00  0.00    +0.000 OA
ATOM     47  C   UNL     1       6.413  -0.367  -1.735  1.00  0.00    +0.000 C 
ATOM     48  C   UNL     1       6.302  -1.265  -2.961  1.00  0.00    +0.000 C 
ATOM     49  C   UNL     1       5.618  -0.903  -0.541  1.00  0.00    +0.000 C 
ATOM     50  C   UNL     1       0.417   0.201   2.096  1.00  0.00    +0.000 C 
ATOM     51  C   UNL     1       0.189   1.614   1.502  1.00  0.00    +0.000 C 
BRANCH  25  52
ATOM     52  O   UNL     1      -2.894  -0.015   4.908  1.00  0.00    +0.000 OA
ATOM     53  H   UNL     1      -3.251   0.819   4.560  1.00  0.00    +0.000 HD
ENDBRANCH  25  52
ENDBRANCH  22  23
ENDBRANCH   5  22
BRANCH   6  54
ATOM     54  O   UNL     1      -4.495  -2.062   0.078  1.00  0.00    +0.000 OA
BRANCH  54  55
ATOM     55  C   UNL     1      -5.758  -1.507   0.455  1.00  0.00    +0.000 C 
ATOM     56  O   UNL     1      -5.626  -0.786   1.680  1.00  0.00    +0.000 OA
ATOM     57  C   UNL     1      -6.814  -0.068   2.047  1.00  0.00    +0.000 C 
ATOM     58  C   UNL     1      -6.760   1.342   1.467  1.00  0.00    +0.000 C 
ATOM     59  C   UNL     1      -8.113  -0.805   1.660  1.00  0.00    +0.000 C 
ATOM     60  C   UNL     1      -7.843  -2.312   1.658  1.00  0.00    +0.000 C 
ATOM     61  C   UNL     1      -6.778  -2.657   0.609  1.00  0.00    +0.000 C 
BRANCH  59  62
ATOM     62  O   UNL     1      -9.170  -0.526   2.586  1.00  0.00    +0.000 OA
ATOM     63  H   UNL     1      -9.407   0.414   2.483  1.00  0.00    +0.000 HD
ENDBRANCH  59  62
BRANCH  60  64
ATOM     64  O   UNL     1      -9.053  -3.034   1.373  1.00  0.00    +0.000 OA
ATOM     65  H   UNL     1      -9.728  -2.622   1.953  1.00  0.00    +0.000 HD
ENDBRANCH  60  64
BRANCH  61  66
ATOM     66  O   UNL     1      -7.423  -2.895  -0.659  1.00  0.00    +0.000 OA
ATOM     67  H   UNL     1      -8.261  -3.350  -0.423  1.00  0.00    +0.000 HD
ENDBRANCH  61  66
ENDBRANCH  54  55
ENDBRANCH   6  54
TORSDOF 14
