REMARK  Name = /srv/my_project/app/compsite/backup/Dave/CORINA_stuff/newPDBs/SANC00190.pdb
AUTHORGENERATED BY OPEN BABEL 2.3.2
REMARK  4 active torsions:
REMARK  status: ('A' for Active; 'I' for Inactive)
REMARK    1  A    between atoms: C_8  and  C_18
REMARK    2  A    between atoms: C_11  and  C_15
REMARK    3  A    between atoms: C_15  and  C_16
REMARK    4  A    between atoms: C_15  and  C_17
REMARK                            x       y       z     vdW  Elec       q    Type
REMARK                         _______ _______ _______ _____ _____    ______ ____
ROOT
ATOM      1  O   UNL     1       0.676   2.155   0.028  1.00  0.00    +0.000 OA
ATOM      2  C   UNL     1      -0.164   1.348   0.419  1.00  0.00    +0.000 C 
ATOM      3  C   UNL     1      -1.392   1.826   1.147  1.00  0.00    +0.000 C 
ATOM      4  C   UNL     1      -1.348   3.026   1.748  1.00  0.00    +0.000 C 
ATOM      5  C   UNL     1      -2.601   0.938   1.149  1.00  0.00    +0.000 C 
ATOM      6  C   UNL     1      -3.156   0.628  -0.245  1.00  0.00    +0.000 C 
ATOM      7  C   UNL     1      -2.130   0.355  -1.353  1.00  0.00    +0.000 C 
ATOM      8  C   UNL     1      -0.967  -0.610  -1.012  1.00  0.00    +0.000 C 
ATOM      9  C   UNL     1      -0.060  -0.164   0.175  1.00  0.00    +0.000 C 
ATOM     10  C   UNL     1       1.341  -0.689  -0.212  1.00  0.00    +0.000 C 
ATOM     11  C   UNL     1       1.408  -0.403  -1.710  1.00  0.00    +0.000 C 
ATOM     12  C   UNL     1       0.001  -0.696  -2.228  1.00  0.00    +0.000 C 
ATOM     13  C   UNL     1      -1.545  -2.014  -0.728  1.00  0.00    +0.000 C 
ENDROOT
BRANCH  10  14
ATOM     14  C   UNL     1       2.552  -0.179   0.600  1.00  0.00    +0.000 C 
ATOM     15  C   UNL     1       2.361  -0.413   2.101  1.00  0.00    +0.000 C 
ATOM     16  C   UNL     1       3.849  -0.859   0.145  1.00  0.00    +0.000 C 
ENDBRANCH  10  14
TORSDOF 1
