REMARK  Name = /srv/my_project/app/compsite/backup/Dave/CORINA_stuff/newPDBs/SANC00576.pdb
AUTHORGENERATED BY OPEN BABEL 2.3.2
REMARK  10 active torsions:
REMARK  status: ('A' for Active; 'I' for Inactive)
REMARK    1  A    between atoms: C_2  and  C_3
REMARK    2  A    between atoms: C_3  and  C_4
REMARK    3  A    between atoms: C_3  and  C_13
REMARK    4  A    between atoms: C_5  and  C_6
REMARK    5  A    between atoms: C_9  and  O_10
REMARK    6  A    between atoms: C_15  and  O_16
REMARK    7  A    between atoms: C_17  and  O_18
REMARK    8  A    between atoms: O_18  and  C_19
REMARK    9  A    between atoms: C_20  and  O_21
REMARK   10  A    between atoms: O_21  and  C_22
REMARK                            x       y       z     vdW  Elec       q    Type
REMARK                         _______ _______ _______ _____ _____    ______ ____
ROOT
ATOM      1  C   UNL     1       0.259  -1.015  -1.397  1.00  0.00    +0.000 C 
ENDROOT
BRANCH   1   2
ATOM      2  C   UNL     1      -0.627  -0.515  -0.259  1.00  0.00    +0.000 A 
ATOM      3  C   UNL     1      -0.327  -0.888   1.062  1.00  0.00    +0.000 A 
ATOM      4  C   UNL     1      -1.112  -0.428   2.116  1.00  0.00    +0.000 A 
ATOM      5  C   UNL     1      -2.214   0.395   1.869  1.00  0.00    +0.000 A 
ATOM      6  C   UNL     1      -2.529   0.789   0.559  1.00  0.00    +0.000 A 
ATOM      7  C   UNL     1      -1.738   0.320  -0.496  1.00  0.00    +0.000 A 
BRANCH   4   8
ATOM      8  O   UNL     1      -0.805  -0.779   3.403  1.00  0.00    +0.000 OA
ATOM      9  H   UNL     1       0.022  -1.286   3.400  1.00  0.00    +0.000 HD
ENDBRANCH   4   8
BRANCH   5  10
ATOM     10  O   UNL     1      -2.950   0.884   2.923  1.00  0.00    +0.000 OA
ATOM     11  C   UNL     1      -3.980  -0.043   3.261  1.00  0.00    +0.000 C 
ENDBRANCH   5  10
BRANCH   6  12
ATOM     12  O   UNL     1      -3.620   1.607   0.418  1.00  0.00    +0.000 OA
ATOM     13  C   UNL     1      -3.858   2.161  -0.868  1.00  0.00    +0.000 C 
ENDBRANCH   6  12
ENDBRANCH   1   2
BRANCH   1  15
ATOM     14  C   UNL     1      -0.034  -3.307  -2.429  1.00  0.00    +0.000 C 
ATOM     15  C   UNL     1      -0.460  -2.049  -2.240  1.00  0.00    +0.000 C 
ENDBRANCH   1  15
BRANCH   1  16
ATOM     16  C   UNL     1       0.780   0.117  -2.263  1.00  0.00    +0.000 C 
ATOM     17  C   UNL     1       1.874   0.864  -2.033  1.00  0.00    +0.000 C 
BRANCH  17  18
ATOM     18  C   UNL     1       2.723   0.729  -0.849  1.00  0.00    +0.000 A 
ATOM     19  C   UNL     1       2.395   1.413   0.328  1.00  0.00    +0.000 A 
ATOM     20  C   UNL     1       3.182   1.266   1.472  1.00  0.00    +0.000 A 
ATOM     21  C   UNL     1       4.296   0.434   1.431  1.00  0.00    +0.000 A 
ATOM     22  C   UNL     1       4.633  -0.251   0.268  1.00  0.00    +0.000 A 
ATOM     23  C   UNL     1       3.846  -0.103  -0.876  1.00  0.00    +0.000 A 
BRANCH  21  24
ATOM     24  O   UNL     1       5.091   0.258   2.525  1.00  0.00    +0.000 OA
ATOM     25  H   UNL     1       4.769   0.837   3.236  1.00  0.00    +0.000 HD
ENDBRANCH  21  24
ENDBRANCH  17  18
ENDBRANCH   1  16
TORSDOF 8
