REMARK  Name = /srv/my_project/app/compsite/backup/Dave/CORINA_stuff/newPDBs/SANC00175.pdb
AUTHORGENERATED BY OPEN BABEL 2.3.2
REMARK  9 active torsions:
REMARK  status: ('A' for Active; 'I' for Inactive)
REMARK    1  A    between atoms: C_1  and  C_2
REMARK    2  A    between atoms: C_2  and  C_4
REMARK    3  A    between atoms: C_8  and  C_9
REMARK    4  A    between atoms: C_12  and  C_13
REMARK    5  A    between atoms: C_20  and  C_21
REMARK    6  A    between atoms: C_24  and  O_26
REMARK    7  A    between atoms: C_27  and  C_28
REMARK    8  A    between atoms: C_27  and  C_29
REMARK    9  A    between atoms: C_34  and  C_35
REMARK                            x       y       z     vdW  Elec       q    Type
REMARK                         _______ _______ _______ _____ _____    ______ ____
ROOT
ATOM      1  C   UNL     1      -4.378   0.319  -1.264  1.00  0.00    +0.000 C 
ATOM      2  C   UNL     1      -5.687  -0.481  -1.012  1.00  0.00    +0.000 C 
ATOM      3  C   UNL     1      -5.318  -1.667  -0.105  1.00  0.00    +0.000 C 
ATOM      4  C   UNL     1      -3.804  -1.825  -0.285  1.00  0.00    +0.000 C 
ATOM      5  C   UNL     1      -3.549  -2.597  -1.605  1.00  0.00    +0.000 C 
ATOM      6  C   UNL     1      -3.098  -2.543   0.873  1.00  0.00    +0.000 C 
ATOM      7  C   UNL     1      -1.564  -2.430   0.755  1.00  0.00    +0.000 C 
ATOM      8  C   UNL     1      -1.018  -0.967   0.575  1.00  0.00    +0.000 C 
ATOM      9  C   UNL     1      -1.241  -0.277   1.965  1.00  0.00    +0.000 C 
ATOM     10  C   UNL     1      -1.850  -0.213  -0.544  1.00  0.00    +0.000 C 
ATOM     11  C   UNL     1      -1.362   1.229  -0.728  1.00  0.00    +0.000 C 
ATOM     12  C   UNL     1       0.135   1.313  -1.037  1.00  0.00    +0.000 C 
ATOM     13  C   UNL     1       1.016   0.568  -0.008  1.00  0.00    +0.000 C 
ATOM     14  C   UNL     1       2.584   0.823  -0.164  1.00  0.00    +0.000 C 
ATOM     15  C   UNL     1       3.109   0.385  -1.552  1.00  0.00    +0.000 C 
ATOM     16  C   UNL     1       2.861   2.353  -0.023  1.00  0.00    +0.000 C 
ATOM     17  C   UNL     1       4.334   2.716   0.156  1.00  0.00    +0.000 C 
ATOM     18  C   UNL     1       4.977   1.973   1.321  1.00  0.00    +0.000 C 
ATOM     19  C   UNL     1       4.820   0.425   1.247  1.00  0.00    +0.000 C 
ATOM     20  C   UNL     1       5.742  -0.194   0.177  1.00  0.00    +0.000 C 
ATOM     21  C   UNL     1       5.305  -0.146   2.609  1.00  0.00    +0.000 C 
ATOM     22  C   UNL     1       3.294   0.095   1.041  1.00  0.00    +0.000 C 
ATOM     23  C   UNL     1       2.947  -1.406   1.071  1.00  0.00    +0.000 C 
ATOM     24  C   UNL     1       1.439  -1.622   1.240  1.00  0.00    +0.000 C 
ATOM     25  C   UNL     1       0.557  -0.940   0.158  1.00  0.00    +0.000 C 
ATOM     26  C   UNL     1       0.770  -1.743  -1.161  1.00  0.00    +0.000 C 
ATOM     27  C   UNL     1      -3.370  -0.337  -0.290  1.00  0.00    +0.000 C 
ENDROOT
BRANCH   1  29
ATOM     28  C   UNL     1      -5.196   2.427  -2.447  1.00  0.00    +0.000 C 
ATOM     29  C   UNL     1      -4.652   1.813  -1.182  1.00  0.00    +0.000 C 
ATOM     30  C   UNL     1      -4.459   2.574  -0.091  1.00  0.00    +0.000 C 
ENDBRANCH   1  29
BRANCH  18  31
ATOM     31  O   UNL     1       6.347   2.360   1.416  1.00  0.00    +0.000 OA
ATOM     32  H   UNL     1       6.766   2.209   0.552  1.00  0.00    +0.000 HD
ENDBRANCH  18  31
TORSDOF 2
