REMARK  Name = SANCDB_00802_minRM1.pdb
AUTHORGENERATED BY OPEN BABEL 2.3.2
REMARK  3 active torsions:
REMARK  status: ('A' for Active; 'I' for Inactive)
REMARK    1  A    between atoms: C_1  and  C_2
REMARK    2  A    between atoms: C_2  and  C_3
REMARK    3  A    between atoms: C_3  and  C_4
REMARK                            x       y       z     vdW  Elec       q    Type
REMARK                         _______ _______ _______ _____ _____    ______ ____
ROOT
ATOM      1  C   UNL     1       0.100   0.168   0.390  1.00  0.00    +0.000 C 
ATOM      2  C   UNL     1       0.624   0.071  -1.054  1.00  0.00    +0.000 C 
ATOM      3  C   UNL     1       2.105   0.435  -1.139  1.00  0.00    +0.000 C 
ATOM      4  C   UNL     1       2.919  -0.369  -0.132  1.00  0.00    +0.000 C 
ATOM      5  C   UNL     1       2.325  -0.252   1.268  1.00  0.00    +0.000 C 
ATOM      6  N   UNL     1       0.919  -0.657   1.294  1.00  0.00    +0.000 NA
ATOM      7  H   UNL     1       0.849  -1.635   1.010  1.00  0.00    +0.000 HD
ENDROOT
BRANCH   1   8
ATOM      8  C   UNL     1      -1.362  -0.300   0.517  1.00  0.00    +0.000 C 
BRANCH   8  10
ATOM      9  C   UNL     1      -3.788   0.146  -0.006  1.00  0.00    +0.000 C 
ATOM     10  C   UNL     1      -2.350   0.567  -0.269  1.00  0.00    +0.000 C 
ENDBRANCH   8  10
ENDBRANCH   1   8
TORSDOF 2
