REMARK  Name = C[C@@H]3CC[C@H](OC(=O)c1ccoc1)[C@@]4(C)[C@@H](OC(=O)c2ccoc2)C[C@H]5C[C@]34OC...
REMARK  10 active torsions:
REMARK  status: ('A' for Active; 'I' for Inactive)
REMARK    1  A    between atoms: C_1  and  C_26
REMARK    2  A    between atoms: C_2  and  C_30
REMARK    3  A    between atoms: C_3  and  C_30
REMARK    4  A    between atoms: C_4  and  C_31
REMARK    5  A    between atoms: O_17  and  C_22
REMARK    6  A    between atoms: O_17  and  C_28
REMARK    7  A    between atoms: O_18  and  C_23
REMARK    8  A    between atoms: O_18  and  C_29
REMARK    9  A    between atoms: C_22  and  C_24
REMARK   10  A    between atoms: C_23  and  C_25
REMARK                            x       y       z     vdW  Elec       q    Type
REMARK                         _______ _______ _______ _____ _____    ______ ____
ROOT
ATOM      1  C   UNL     1       0.537  -4.578   0.543  1.00  0.00    +0.000 C 
ATOM      2  C   UNL     1      -3.157  -3.051  -0.526  1.00  0.00    +0.000 C 
ATOM      3  C   UNL     1      -3.317  -0.617  -0.826  1.00  0.00    +0.000 C 
ATOM      4  C   UNL     1       1.256  -0.920   2.313  1.00  0.00    +0.000 C 
ATOM      5  C   UNL     1       2.209  -2.827  -0.025  1.00  0.00    +0.000 C 
ATOM      6  C   UNL     1       2.560  -1.393  -0.402  1.00  0.00    +0.000 C 
ATOM      7  C   UNL     1      -1.906  -0.134   1.853  1.00  0.00    +0.000 C 
ATOM      8  C   UNL     1      -1.213  -2.512   1.654  1.00  0.00    +0.000 C 
ATOM      9  O   UNL     1      -1.141  -1.732  -0.586  1.00  0.00    +0.000 OA
ATOM     10  C   UNL     1       0.711  -3.176  -0.054  1.00  0.00    +0.000 C 
ATOM     11  C   UNL     1      -2.357  -1.544   1.394  1.00  0.00    +0.000 C 
ATOM     12  C   UNL     1       1.446  -0.367  -0.177  1.00  0.00    +0.000 C 
ATOM     13  C   UNL     1      -0.575   0.381   1.241  1.00  0.00    +0.000 C 
ATOM     14  C   UNL     1      -2.508  -1.709  -0.124  1.00  0.00    +0.000 C 
ATOM     15  C   UNL     1       0.476  -0.758   0.973  1.00  0.00    +0.000 C 
ATOM     16  C   UNL     1      -0.246  -2.086   0.538  1.00  0.00    +0.000 C 
ENDROOT
BRANCH  12  17
ATOM     17  O   UNL     1       2.036   0.920   0.110  1.00  0.00    +0.000 OA
BRANCH  17  19
ATOM     18  O   UNL     1       2.416   1.262  -2.127  1.00  0.00    +0.000 OA
ATOM     19  C   UNL     1       2.434   1.658  -0.968  1.00  0.00    +0.000 C 
BRANCH  19  24
ATOM     20  C   UNL     1       3.602   5.110  -0.651  1.00  0.00    +0.000 A 
ATOM     21  C   UNL     1       3.325   4.032  -1.457  1.00  0.00    +0.000 A 
ATOM     22  C   UNL     1       2.891   3.529   0.672  1.00  0.00    +0.000 A 
ATOM     23  O   UNL     1       3.341   4.809   0.646  1.00  0.00    +0.000 OA
ATOM     24  C   UNL     1       2.862   2.991  -0.600  1.00  0.00    +0.000 A 
ENDBRANCH  19  24
ENDBRANCH  17  19
ENDBRANCH  12  17
BRANCH  13  25
ATOM     25  O   UNL     1      -0.835   1.117   0.029  1.00  0.00    +0.000 OA
BRANCH  25  27
ATOM     26  O   UNL     1      -1.268   3.019   1.233  1.00  0.00    +0.000 OA
ATOM     27  C   UNL     1      -1.121   2.444   0.161  1.00  0.00    +0.000 C 
BRANCH  27  32
ATOM     28  C   UNL     1      -1.473   4.666  -2.724  1.00  0.00    +0.000 A 
ATOM     29  C   UNL     1      -1.497   4.497  -1.360  1.00  0.00    +0.000 A 
ATOM     30  C   UNL     1      -1.039   2.559  -2.364  1.00  0.00    +0.000 A 
ATOM     31  O   UNL     1      -1.196   3.489  -3.341  1.00  0.00    +0.000 OA
ATOM     32  C   UNL     1      -1.217   3.122  -1.115  1.00  0.00    +0.000 A 
ENDBRANCH  27  32
ENDBRANCH  25  27
ENDBRANCH  13  25
TORSDOF 6
