REMARK  Name = /srv/my_project/app/compsite/backup/Dave/CORINA_stuff/newPDBs/SANC00485.pdb
AUTHORGENERATED BY OPEN BABEL 2.3.2
REMARK  17 active torsions:
REMARK  status: ('A' for Active; 'I' for Inactive)
REMARK    1  A    between atoms: C_9  and  C_11
REMARK    2  A    between atoms: C_16  and  C_21
REMARK    3  A    between atoms: C_16  and  C_22
REMARK    4  A    between atoms: C_18  and  O_20
REMARK    5  A    between atoms: C_36  and  O_38
REMARK    6  A    between atoms: O_38  and  C_39
REMARK    7  A    between atoms: C_40  and  C_41
REMARK    8  A    between atoms: C_42  and  O_43
REMARK    9  A    between atoms: C_59  and  C_60
REMARK   10  A    between atoms: C_59  and  C_61
REMARK   11  A    between atoms: C_61  and  O_62
REMARK   12  A    between atoms: C_64  and  O_66
REMARK   13  A    between atoms: C_67  and  C_69
REMARK   14  A    between atoms: C_70  and  O_71
REMARK   15  A    between atoms: C_72  and  C_73
REMARK   16  A    between atoms: C_74  and  O_76
REMARK   17  A    between atoms: C_80  and  C_81
REMARK                            x       y       z     vdW  Elec       q    Type
REMARK                         _______ _______ _______ _____ _____    ______ ____
ROOT
ATOM      1  O   UNL     1       8.007   2.831  -0.682  1.00  0.00    +0.000 OA
ATOM      2  C   UNL     1       7.581   1.684  -0.837  1.00  0.00    +0.000 C 
ATOM      3  C   UNL     1       8.510   0.486  -1.087  1.00  0.00    +0.000 C 
ATOM      4  C   UNL     1       7.842  -0.274  -2.204  1.00  0.00    +0.000 C 
ATOM      5  C   UNL     1       8.533  -0.190  -3.349  1.00  0.00    +0.000 C 
ATOM      6  C   UNL     1       9.723   0.703  -3.217  1.00  0.00    +0.000 C 
ATOM      7  C   UNL     1       9.886   0.869  -1.698  1.00  0.00    +0.000 C 
ATOM      8  C   UNL     1      11.054   0.039  -1.098  1.00  0.00    +0.000 C 
ATOM      9  C   UNL     1      11.131  -1.426  -1.578  1.00  0.00    +0.000 C 
ATOM     10  C   UNL     1      11.038   0.169   0.456  1.00  0.00    +0.000 C 
ATOM     11  O   UNL     1       9.716   0.311   1.008  1.00  0.00    +0.000 OA
ATOM     12  C   UNL     1       8.683  -0.280   0.233  1.00  0.00    +0.000 C 
ATOM     13  O   UNL     1      11.645  -0.979   1.075  1.00  0.00    +0.000 OA
ATOM     14  C   UNL     1      12.357  -0.562   2.253  1.00  0.00    +0.000 C 
ATOM     15  C   UNL     1      12.169   0.953   2.394  1.00  0.00    +0.000 C 
ATOM     16  C   UNL     1      11.836   1.391   0.982  1.00  0.00    +0.000 C 
ATOM     17  C   UNL     1      11.778  -1.311   3.453  1.00  0.00    +0.000 C 
ATOM     18  C   UNL     1      13.826  -0.948   2.063  1.00  0.00    +0.000 C 
ATOM     19  C   UNL     1       6.453  -0.807  -1.959  1.00  0.00    +0.000 C 
ATOM     20  C   UNL     1       5.893  -1.668  -3.105  1.00  0.00    +0.000 C 
ATOM     21  C   UNL     1       4.471  -2.147  -2.820  1.00  0.00    +0.000 C 
ATOM     22  C   UNL     1       3.514  -0.995  -2.458  1.00  0.00    +0.000 C 
ATOM     23  C   UNL     1       2.104  -1.551  -2.207  1.00  0.00    +0.000 C 
ATOM     24  C   UNL     1       1.157  -0.595  -1.540  1.00  0.00    +0.000 A 
ATOM     25  N   UNL     1      -0.136  -1.003  -1.457  1.00  0.00    +0.000 NA
ATOM     26  C   UNL     1      -0.991  -0.208  -0.768  1.00  0.00    +0.000 A 
ATOM     27  C   UNL     1      -0.562   0.973  -0.168  1.00  0.00    +0.000 A 
ATOM     28  N   UNL     1       0.731   1.374  -0.233  1.00  0.00    +0.000 NA
ATOM     29  C   UNL     1       1.588   0.585  -0.940  1.00  0.00    +0.000 A 
ATOM     30  C   UNL     1       3.025   1.060  -1.051  1.00  0.00    +0.000 C 
ATOM     31  C   UNL     1       4.044  -0.121  -1.270  1.00  0.00    +0.000 C 
ATOM     32  C   UNL     1       4.092  -0.946   0.052  1.00  0.00    +0.000 C 
ATOM     33  C   UNL     1       5.500   0.403  -1.663  1.00  0.00    +0.000 C 
ATOM     34  C   UNL     1       6.096   1.382  -0.624  1.00  0.00    +0.000 C 
ATOM     35  C   UNL     1      -1.492   1.835   0.638  1.00  0.00    +0.000 C 
ATOM     36  C   UNL     1      -2.976   1.539   0.370  1.00  0.00    +0.000 C 
ATOM     37  C   UNL     1      -3.866   2.336   1.332  1.00  0.00    +0.000 C 
ATOM     38  C   UNL     1      -5.345   2.122   1.023  1.00  0.00    +0.000 C 
ATOM     39  C   UNL     1      -5.726   0.633   1.045  1.00  0.00    +0.000 C 
ATOM     40  C   UNL     1      -7.164   0.360   0.689  1.00  0.00    +0.000 C 
ATOM     41  C   UNL     1      -8.072   1.174   0.134  1.00  0.00    +0.000 C 
ATOM     42  C   UNL     1      -9.266   0.428  -0.361  1.00  0.00    +0.000 C 
ATOM     43  O   UNL     1     -10.456   1.085   0.067  1.00  0.00    +0.000 OA
ATOM     44  C   UNL     1     -11.253   0.115   0.769  1.00  0.00    +0.000 C 
ATOM     45  O   UNL     1     -12.022   0.795   1.773  1.00  0.00    +0.000 OA
ATOM     46  C   UNL     1     -13.290   1.178   1.181  1.00  0.00    +0.000 C 
ATOM     47  C   UNL     1     -13.359   2.705   1.175  1.00  0.00    +0.000 C 
ATOM     48  C   UNL     1     -13.318   0.608  -0.242  1.00  0.00    +0.000 C 
ATOM     49  C   UNL     1     -12.301  -0.510  -0.177  1.00  0.00    +0.000 C 
ATOM     50  C   UNL     1     -10.227  -0.814   1.424  1.00  0.00    +0.000 C 
ATOM     51  C   UNL     1     -10.824  -2.104   1.978  1.00  0.00    +0.000 C 
ATOM     52  C   UNL     1      -9.166  -0.962   0.323  1.00  0.00    +0.000 C 
ATOM     53  C   UNL     1      -7.647  -1.079   0.730  1.00  0.00    +0.000 C 
ATOM     54  C   UNL     1      -7.475  -1.728   2.119  1.00  0.00    +0.000 C 
ATOM     55  C   UNL     1      -6.782  -1.816  -0.329  1.00  0.00    +0.000 C 
ATOM     56  C   UNL     1      -5.269  -1.661  -0.062  1.00  0.00    +0.000 C 
ATOM     57  C   UNL     1      -4.822  -0.178   0.064  1.00  0.00    +0.000 C 
ATOM     58  C   UNL     1      -3.290   0.009   0.382  1.00  0.00    +0.000 C 
ATOM     59  C   UNL     1      -2.918  -0.647   1.737  1.00  0.00    +0.000 C 
ATOM     60  C   UNL     1      -2.431  -0.646  -0.736  1.00  0.00    +0.000 C 
ENDROOT
BRANCH  16  61
ATOM     61  O   UNL     1      13.052   1.648   0.278  1.00  0.00    +0.000 OA
ATOM     62  H   UNL     1      13.442   2.452   0.662  1.00  0.00    +0.000 HD
ENDBRANCH  16  61
BRANCH  30  63
ATOM     63  O   UNL     1       3.151   1.994  -2.144  1.00  0.00    +0.000 OA
ATOM     64  C   UNL     1       2.582   3.273  -1.874  1.00  0.00    +0.000 C 
ENDBRANCH  30  63
BRANCH  33  65
ATOM     65  O   UNL     1       5.422   1.142  -2.903  1.00  0.00    +0.000 OA
ATOM     66  H   UNL     1       4.638   1.728  -2.863  1.00  0.00    +0.000 HD
ENDBRANCH  33  65
BRANCH  49  67
ATOM     67  O   UNL     1     -11.850  -0.865  -1.478  1.00  0.00    +0.000 OA
ATOM     68  H   UNL     1     -11.089  -1.471  -1.353  1.00  0.00    +0.000 HD
ENDBRANCH  49  67
BRANCH  52  69
ATOM     69  O   UNL     1      -9.574  -1.992  -0.592  1.00  0.00    +0.000 OA
ATOM     70  H   UNL     1      -9.005  -2.773  -0.413  1.00  0.00    +0.000 HD
ENDBRANCH  52  69
BRANCH  55  71
ATOM     71  O   UNL     1      -7.132  -3.204  -0.350  1.00  0.00    +0.000 OA
ATOM     72  H   UNL     1      -6.532  -3.644  -0.980  1.00  0.00    +0.000 HD
ENDBRANCH  55  71
BRANCH  46  73
ATOM     73  C   UNL     1     -14.415   0.616   2.074  1.00  0.00    +0.000 C 
BRANCH  73  74
ATOM     74  O   UNL     1     -14.447  -0.811   2.044  1.00  0.00    +0.000 OA
ATOM     75  H   UNL     1     -15.101  -1.091   2.708  1.00  0.00    +0.000 HD
ENDBRANCH  73  74
ENDBRANCH  46  73
TORSDOF 8
