REMARK  Name = SANCDB_01013_minRM1.pdb
AUTHORGENERATED BY OPEN BABEL 2.3.2
REMARK  6 active torsions:
REMARK  status: ('A' for Active; 'I' for Inactive)
REMARK    1  A    between atoms: C_6  and  C_7
REMARK    2  A    between atoms: C_8  and  C_9
REMARK    3  A    between atoms: C_9  and  C_11
REMARK    4  A    between atoms: C_12  and  O_19
REMARK    5  A    between atoms: C_14  and  O_18
REMARK    6  A    between atoms: C_16  and  O_17
REMARK                            x       y       z     vdW  Elec       q    Type
REMARK                         _______ _______ _______ _____ _____    ______ ____
ROOT
ATOM      1  C   UNL     1       2.288   0.374   0.457  1.00  0.00    +0.000 A 
ATOM      2  C   UNL     1       3.163   1.361   0.952  1.00  0.00    +0.000 A 
ATOM      3  C   UNL     1       4.526   1.336   0.658  1.00  0.00    +0.000 A 
ATOM      4  C   UNL     1       5.031   0.300  -0.116  1.00  0.00    +0.000 A 
ATOM      5  C   UNL     1       4.199  -0.710  -0.588  1.00  0.00    +0.000 A 
ATOM      6  C   UNL     1       2.832  -0.678  -0.295  1.00  0.00    +0.000 A 
ENDROOT
BRANCH   1   7
ATOM      7  C   UNL     1       0.844   0.494   0.789  1.00  0.00    +0.000 C 
ATOM      8  O   UNL     1       0.527   1.060   1.835  1.00  0.00    +0.000 OA
BRANCH   7  10
ATOM      9  C   UNL     1      -1.479   0.028   0.142  1.00  0.00    +0.000 C 
ATOM     10  C   UNL     1      -0.177   0.026  -0.187  1.00  0.00    +0.000 C 
BRANCH   9  16
ATOM     11  C   UNL     1      -3.343  -1.641  -0.185  1.00  0.00    +0.000 C 
ATOM     12  C   UNL     1      -4.673  -1.320   0.444  1.00  0.00    +0.000 C 
ATOM     13  C   UNL     1      -5.299  -0.154   0.235  1.00  0.00    +0.000 C 
ATOM     14  C   UNL     1      -4.736   0.856  -0.625  1.00  0.00    +0.000 C 
ATOM     15  C   UNL     1      -3.485   0.752  -1.098  1.00  0.00    +0.000 C 
ATOM     16  C   UNL     1      -2.586  -0.421  -0.784  1.00  0.00    +0.000 C 
ENDBRANCH   9  16
ENDBRANCH   7  10
ENDBRANCH   1   7
BRANCH   6  17
ATOM     17  O   UNL     1       2.050  -1.714  -0.729  1.00  0.00    +0.000 OA
ATOM     18  H   UNL     1       2.615  -2.399  -1.127  1.00  0.00    +0.000 HD
ENDBRANCH   6  17
BRANCH   4  19
ATOM     19  O   UNL     1       6.356   0.227  -0.429  1.00  0.00    +0.000 OA
ATOM     20  H   UNL     1       6.813   0.987  -0.029  1.00  0.00    +0.000 HD
ENDBRANCH   4  19
BRANCH   2  21
ATOM     21  O   UNL     1       2.746   2.401   1.746  1.00  0.00    +0.000 OA
ATOM     22  H   UNL     1       1.831   2.199   2.049  1.00  0.00    +0.000 HD
ENDBRANCH   2  21
TORSDOF 6
