REMARK  Name = SANC00135.pdb
AUTHORGENERATED BY OPEN BABEL 2.3.2
REMARK  5 active torsions:
REMARK  status: ('A' for Active; 'I' for Inactive)
REMARK    1  A    between atoms: N_1  and  CA_2
REMARK    2  A    between atoms: CA_2  and  C_3
REMARK    3  A    between atoms: CA_2  and  C_29
REMARK    4  A    between atoms: C_3  and  C_4
REMARK    5  A    between atoms: C_29  and  OXT_31
REMARK                            x       y       z     vdW  Elec       q    Type
REMARK                         _______ _______ _______ _____ _____    ______ ____
ROOT
ATOM      1  C   UNL     1       1.447  -0.043  -0.076  1.00  0.00    +0.000 C 
ATOM      2  C   UNL     1       0.677   1.088  -0.803  1.00  0.00    +0.000 C 
ATOM      3  C   UNL     1       0.342   0.729  -2.263  1.00  0.00    +0.000 C 
ATOM      4  O   UNL     1       0.110   1.606  -3.091  1.00  0.00    +0.000 OA
ATOM      5  C   UNL     1       0.183  -0.697  -2.634  1.00  0.00    +0.000 C 
ATOM      6  C   UNL     1       0.248  -1.603  -1.652  1.00  0.00    +0.000 C 
ATOM      7  S   UNL     1      -0.053  -3.296  -1.900  1.00  0.00    +0.000 S 
ATOM      8  C   UNL     1       0.031  -3.641  -0.091  1.00  0.00    +0.000 C 
ATOM      9  C   UNL     1       1.065  -2.603   0.376  1.00  0.00    +0.000 C 
ATOM     10  C   UNL     1       0.531  -1.280  -0.188  1.00  0.00    +0.000 C 
ATOM     11  C   UNL     1      -0.800  -0.963   0.462  1.00  0.00    +0.000 C 
ATOM     12  C   UNL     1      -1.540  -2.139   1.125  1.00  0.00    +0.000 C 
ATOM     13  N   UNL     1      -1.292  -3.429   0.477  1.00  0.00    +0.000 NA
ATOM     14  C   UNL     1      -3.096  -1.909   1.354  1.00  0.00    +0.000 C 
ATOM     15  O   UNL     1      -3.897  -2.810   1.567  1.00  0.00    +0.000 OA
ATOM     16  C   UNL     1      -3.476  -0.514   1.312  1.00  0.00    +0.000 A 
ATOM     17  N   UNL     1      -4.685   0.075   1.591  1.00  0.00    +0.000 N 
ATOM     18  H   UNL     1      -5.517  -0.417   1.905  1.00  0.00    +0.000 HD
ATOM     19  C   UNL     1      -4.598   1.434   1.321  1.00  0.00    +0.000 A 
ATOM     20  C   UNL     1      -3.327   1.706   0.860  1.00  0.00    +0.000 A 
ATOM     21  C   UNL     1      -2.657   2.921   0.323  1.00  0.00    +0.000 C 
ATOM     22  C   UNL     1      -1.506   2.491  -0.636  1.00  0.00    +0.000 C 
ATOM     23  N   UNL     1      -0.575   1.429   0.029  1.00  0.00    +0.000 NA
ATOM     24  C   UNL     1      -1.327   0.273   0.448  1.00  0.00    +0.000 C 
ATOM     25  C   UNL     1      -2.642   0.489   0.906  1.00  0.00    +0.000 A 
ATOM     26  H   UNL     1      -2.019  -3.687  -0.191  1.00  0.00    +0.000 HD
ATOM     27  H   UNL     1      -0.229   1.892   0.882  1.00  0.00    +0.000 HD
ENDROOT
BRANCH   1  28
ATOM     28  C   UNL     1       2.894  -0.261  -0.598  1.00  0.00    +0.000 C 
BRANCH  28  29
ATOM     29  CA  UNL     1       3.804   0.980  -0.559  1.00  0.00    +0.000 C 
BRANCH  29  30
ATOM     30  N   UNL     1       5.125   0.662  -1.112  1.00  0.00    +0.000 NA
ATOM     31  H1  UNL     1       5.686   0.151  -0.423  1.00  0.00    +0.000 HD
ATOM     32  H2  UNL     1       5.071   0.075  -1.942  1.00  0.00    +0.000 HD
ENDBRANCH  29  30
BRANCH  29  33
ATOM     33  C   UNL     1       3.966   1.503   0.874  1.00  0.00    +0.000 C 
ATOM     34  O   UNL     1       4.826   1.190   1.678  1.00  0.00    +0.000 OA
BRANCH  33  35
ATOM     35  OXT UNL     1       2.972   2.349   1.234  1.00  0.00    +0.000 OA
ATOM     36  HXT UNL     1       3.300   2.674   2.107  1.00  0.00    +0.000 HD
ENDBRANCH  33  35
ENDBRANCH  29  33
ENDBRANCH  28  29
ENDBRANCH   1  28
TORSDOF 5
