REMARK  Name = SANCDB_00920_minRM1.pdb
AUTHORGENERATED BY OPEN BABEL 2.3.2
REMARK  5 active torsions:
REMARK  status: ('A' for Active; 'I' for Inactive)
REMARK    1  A    between atoms: C_1  and  C_2
REMARK    2  A    between atoms: C_9  and  C_10
REMARK    3  A    between atoms: C_9  and  C_11
REMARK    4  A    between atoms: C_14  and  C_15
REMARK    5  A    between atoms: C_14  and  O_16
REMARK                            x       y       z     vdW  Elec       q    Type
REMARK                         _______ _______ _______ _____ _____    ______ ____
ROOT
ATOM      1  C   UNL     1      -0.259  -3.078   1.020  1.00  0.00    +0.000 C 
ATOM      2  C   UNL     1      -1.061  -1.784   1.009  1.00  0.00    +0.000 C 
ATOM      3  C   UNL     1      -2.178  -1.752  -0.053  1.00  0.00    +0.000 C 
ATOM      4  C   UNL     1      -2.321  -0.277  -0.469  1.00  0.00    +0.000 C 
ATOM      5  C   UNL     1      -1.439   0.491   0.521  1.00  0.00    +0.000 C 
ATOM      6  C   UNL     1      -0.259  -0.480   0.757  1.00  0.00    +0.000 C 
ATOM      7  C   UNL     1       0.670  -0.654  -0.429  1.00  0.00    +0.000 C 
ATOM      8  C   UNL     1       1.478   0.460  -1.039  1.00  0.00    +0.000 C 
ATOM      9  C   UNL     1       2.192  -0.645  -0.276  1.00  0.00    +0.000 C 
ATOM     10  C   UNL     1       2.957  -1.664  -1.090  1.00  0.00    +0.000 C 
ATOM     11  C   UNL     1       2.850  -0.355   1.051  1.00  0.00    +0.000 C 
ATOM     12  C   UNL     1       1.286   1.858  -0.572  1.00  0.00    +0.000 C 
ATOM     13  C   UNL     1      -0.143   2.324  -0.860  1.00  0.00    +0.000 C 
ATOM     14  C   UNL     1      -1.159   1.985   0.246  1.00  0.00    +0.000 C 
ATOM     15  C   UNL     1      -2.478   2.720  -0.055  1.00  0.00    +0.000 C 
ENDROOT
BRANCH  14  16
ATOM     16  O   UNL     1      -0.668   2.535   1.484  1.00  0.00    +0.000 OA
ATOM     17  H   UNL     1      -0.526   3.489   1.356  1.00  0.00    +0.000 HD
ENDBRANCH  14  16
TORSDOF 1
