REMARK  Name = SANCDB_01060_minRM1.pdb
AUTHORGENERATED BY OPEN BABEL 2.3.2
REMARK  4 active torsions:
REMARK  status: ('A' for Active; 'I' for Inactive)
REMARK    1  A    between atoms: C_1  and  C_2
REMARK    2  A    between atoms: C_7  and  O_15
REMARK    3  A    between atoms: C_9  and  O_14
REMARK    4  A    between atoms: C_10  and  C_13
REMARK                            x       y       z     vdW  Elec       q    Type
REMARK                         _______ _______ _______ _____ _____    ______ ____
ROOT
ATOM      1  C   UNL     1       3.649  -0.508  -0.237  1.00  0.00    +0.000 C 
ATOM      2  C   UNL     1       2.325   0.186  -0.178  1.00  0.00    +0.000 A 
ATOM      3  C   UNL     1       2.209   1.516  -0.240  1.00  0.00    +0.000 A 
ATOM      4  C   UNL     1       0.877   2.141  -0.177  1.00  0.00    +0.000 A 
ATOM      5  O   UNL     1       0.799   3.361  -0.237  1.00  0.00    +0.000 OA
ATOM      6  C   UNL     1      -0.278   1.220  -0.045  1.00  0.00    +0.000 A 
ATOM      7  C   UNL     1      -1.600   1.676   0.026  1.00  0.00    +0.000 A 
ATOM      8  C   UNL     1      -2.649   0.767   0.151  1.00  0.00    +0.000 A 
ATOM      9  C   UNL     1      -2.385  -0.600   0.204  1.00  0.00    +0.000 A 
ATOM     10  C   UNL     1      -1.075  -1.093   0.136  1.00  0.00    +0.000 A 
ATOM     11  C   UNL     1      -0.024  -0.159   0.010  1.00  0.00    +0.000 A 
ATOM     12  O   UNL     1       1.253  -0.674  -0.055  1.00  0.00    +0.000 OA
ATOM     13  C   UNL     1      -0.802  -2.571   0.195  1.00  0.00    +0.000 C 
ENDROOT
BRANCH   9  14
ATOM     14  O   UNL     1      -3.481  -1.407   0.327  1.00  0.00    +0.000 OA
ATOM     15  H   UNL     1      -3.210  -2.337   0.357  1.00  0.00    +0.000 HD
ENDBRANCH   9  14
BRANCH   7  16
ATOM     16  O   UNL     1      -1.892   3.009  -0.023  1.00  0.00    +0.000 OA
ATOM     17  H   UNL     1      -2.850   3.147   0.039  1.00  0.00    +0.000 HD
ENDBRANCH   7  16
TORSDOF 2
