REMARK  Name = /srv/my_project/app/compsite/backup/Dave/CORINA_stuff/newPDBs/SANC00461.pdb
AUTHORGENERATED BY OPEN BABEL 2.3.2
REMARK  15 active torsions:
REMARK  status: ('A' for Active; 'I' for Inactive)
REMARK    1  A    between atoms: C_2  and  O_3
REMARK    2  A    between atoms: C_2  and  C_20
REMARK    3  A    between atoms: C_2  and  C_24
REMARK    4  A    between atoms: O_3  and  C_4
REMARK    5  A    between atoms: C_7  and  C_9
REMARK    6  A    between atoms: C_10  and  O_12
REMARK    7  A    between atoms: C_13  and  O_15
REMARK    8  A    between atoms: O_15  and  C_16
REMARK    9  A    between atoms: C_17  and  O_19
REMARK   10  A    between atoms: C_20  and  C_22
REMARK   11  A    between atoms: C_20  and  O_23
REMARK   12  A    between atoms: C_24  and  C_26
REMARK   13  A    between atoms: C_24  and  O_29
REMARK   14  A    between atoms: C_26  and  C_27
REMARK   15  A    between atoms: O_29  and  C_30
REMARK                            x       y       z     vdW  Elec       q    Type
REMARK                         _______ _______ _______ _____ _____    ______ ____
ROOT
ATOM      1  C   UNL     1       0.586  -0.877  -0.616  1.00  0.00    +0.000 C 
ATOM      2  O   UNL     1       0.773  -0.876   0.798  1.00  0.00    +0.000 OA
ATOM      3  C   UNL     1       2.034  -1.398   1.196  1.00  0.00    +0.000 C 
ATOM      4  C   UNL     1       2.027  -1.521   2.716  1.00  0.00    +0.000 C 
ATOM      5  C   UNL     1       3.201  -0.503   0.719  1.00  0.00    +0.000 C 
ATOM      6  C   UNL     1       2.829   0.337  -0.523  1.00  0.00    +0.000 C 
ATOM      7  C   UNL     1       1.859  -0.469  -1.406  1.00  0.00    +0.000 C 
ENDROOT
BRANCH   5   8
ATOM      8  O   UNL     1       4.295  -1.375   0.379  1.00  0.00    +0.000 OA
ATOM      9  H   UNL     1       5.105  -0.832   0.412  1.00  0.00    +0.000 HD
ENDBRANCH   5   8
BRANCH   6  10
ATOM     10  O   UNL     1       2.317   1.596  -0.072  1.00  0.00    +0.000 OA
ATOM     11  C   UNL     1       2.116   2.544  -1.110  1.00  0.00    +0.000 C 
ENDBRANCH   6  10
BRANCH   7  12
ATOM     12  O   UNL     1       2.522  -1.640  -1.934  1.00  0.00    +0.000 OA
ATOM     13  H   UNL     1       3.193  -1.941  -1.288  1.00  0.00    +0.000 HD
ENDBRANCH   7  12
BRANCH   1  14
ATOM     14  O   UNL     1      -0.464   0.035  -0.969  1.00  0.00    +0.000 OA
BRANCH  14  15
ATOM     15  C   UNL     1      -1.743  -0.324  -0.418  1.00  0.00    +0.000 C 
BRANCH  15  16
ATOM     16  C   UNL     1      -2.713  -0.659  -1.578  1.00  0.00    +0.000 C 
ATOM     17  C   UNL     1      -2.208  -1.796  -2.462  1.00  0.00    +0.000 C 
BRANCH  16  18
ATOM     18  O   UNL     1      -4.000  -1.021  -1.075  1.00  0.00    +0.000 OA
ATOM     19  H   UNL     1      -3.926  -1.887  -0.639  1.00  0.00    +0.000 HD
ENDBRANCH  16  18
ENDBRANCH  15  16
BRANCH  15  20
ATOM     20  C   UNL     1      -2.281   0.844   0.465  1.00  0.00    +0.000 C 
BRANCH  20  21
ATOM     21  O   UNL     1      -1.509   0.954   1.681  1.00  0.00    +0.000 OA
ATOM     22  C   UNL     1      -1.946   0.076   2.708  1.00  0.00    +0.000 C 
ENDBRANCH  20  21
BRANCH  20  23
ATOM     23  C   UNL     1      -2.140   2.201  -0.226  1.00  0.00    +0.000 C 
BRANCH  23  24
ATOM     24  C   UNL     1      -2.967   3.261   0.457  1.00  0.00    +0.000 C 
ATOM     25  O   UNL     1      -4.005   3.053   1.079  1.00  0.00    +0.000 OA
ENDBRANCH  23  24
ENDBRANCH  20  23
ENDBRANCH  15  20
ENDBRANCH  14  15
ENDBRANCH   1  14
TORSDOF 11
