REMARK  Name = SANCDB_00753_minRM1.pdb
AUTHORGENERATED BY OPEN BABEL 2.3.2
REMARK  9 active torsions:
REMARK  status: ('A' for Active; 'I' for Inactive)
REMARK    1  A    between atoms: C_1  and  O_2
REMARK    2  A    between atoms: O_2  and  C_3
REMARK    3  A    between atoms: C_7  and  O_11
REMARK    4  A    between atoms: C_8  and  O_9
REMARK    5  A    between atoms: O_9  and  C_10
REMARK    6  A    between atoms: N_16  and  C_17
REMARK    7  A    between atoms: C_17  and  O_18
REMARK    8  A    between atoms: O_18  and  C_19
REMARK    9  A    between atoms: C_19  and  C_21
REMARK                            x       y       z     vdW  Elec       q    Type
REMARK                         _______ _______ _______ _____ _____    ______ ____
ROOT
ATOM      1  C   UNL     1       2.432  -1.023  -0.462  1.00  0.00    +0.000 A 
ATOM      2  C   UNL     1       1.031  -0.967  -0.481  1.00  0.00    +0.000 A 
ATOM      3  C   UNL     1       0.332   0.251  -0.349  1.00  0.00    +0.000 A 
ATOM      4  C   UNL     1       1.097   1.417  -0.145  1.00  0.00    +0.000 A 
ATOM      5  C   UNL     1       2.501   1.376  -0.115  1.00  0.00    +0.000 A 
ATOM      6  C   UNL     1       3.161   0.155  -0.261  1.00  0.00    +0.000 A 
ATOM      7  C   UNL     1       0.390   2.701   0.053  1.00  0.00    +0.000 A 
ATOM      8  O   UNL     1       1.032   3.746   0.140  1.00  0.00    +0.000 OA
ATOM      9  C   UNL     1      -1.081   2.707   0.174  1.00  0.00    +0.000 A 
ATOM     10  C   UNL     1      -1.787   1.509  -0.036  1.00  0.00    +0.000 A 
ATOM     11  N   UNL     1      -1.082   0.337  -0.388  1.00  0.00    +0.000 N 
ATOM     12  C   UNL     1      -3.180   1.558   0.147  1.00  0.00    +0.000 A 
ATOM     13  C   UNL     1      -3.836   2.750   0.482  1.00  0.00    +0.000 A 
ATOM     14  C   UNL     1      -3.114   3.925   0.654  1.00  0.00    +0.000 A 
ATOM     15  C   UNL     1      -1.732   3.905   0.505  1.00  0.00    +0.000 A 
ENDROOT
BRANCH   1  17
ATOM     16  C   UNL     1       2.522  -3.279  -1.217  1.00  0.00    +0.000 C 
ATOM     17  O   UNL     1       3.160  -2.179  -0.581  1.00  0.00    +0.000 OA
ENDBRANCH   1  17
BRANCH   6  18
ATOM     18  O   UNL     1       4.535   0.106  -0.287  1.00  0.00    +0.000 OA
ATOM     19  C   UNL     1       5.049   0.057   1.042  1.00  0.00    +0.000 C 
ENDBRANCH   6  18
BRANCH   5  20
ATOM     20  O   UNL     1       3.264   2.506   0.062  1.00  0.00    +0.000 OA
ATOM     21  H   UNL     1       2.658   3.280   0.103  1.00  0.00    +0.000 HD
ENDBRANCH   5  20
BRANCH  11  22
ATOM     22  C   UNL     1      -1.847  -0.810  -0.904  1.00  0.00    +0.000 C 
BRANCH  22  23
ATOM     23  O   UNL     1      -2.190  -1.678   0.176  1.00  0.00    +0.000 OA
BRANCH  23  24
ATOM     24  C   UNL     1      -2.860  -2.788  -0.221  1.00  0.00    +0.000 C 
ATOM     25  O   UNL     1      -3.152  -3.059  -1.377  1.00  0.00    +0.000 OA
ATOM     26  C   UNL     1      -3.191  -3.644   0.962  1.00  0.00    +0.000 C 
ENDBRANCH  23  24
ENDBRANCH  22  23
ENDBRANCH  11  22
TORSDOF 6
