REMARK  Name = /srv/my_project/app/compsite/backup/Dave/CORINA_stuff/newPDBs/SANC00408.pdb
AUTHORGENERATED BY OPEN BABEL 2.3.2
REMARK  16 active torsions:
REMARK  status: ('A' for Active; 'I' for Inactive)
REMARK    1  A    between atoms: C_2  and  O_3
REMARK    2  A    between atoms: O_3  and  C_4
REMARK    3  A    between atoms: C_6  and  O_8
REMARK    4  A    between atoms: C_9  and  O_11
REMARK    5  A    between atoms: C_14  and  O_16
REMARK    6  A    between atoms: O_16  and  C_17
REMARK    7  A    between atoms: C_20  and  O_22
REMARK    8  A    between atoms: C_33  and  C_34
REMARK    9  A    between atoms: C_43  and  O_45
REMARK   10  A    between atoms: C_46  and  C_48
REMARK   11  A    between atoms: C_51  and  C_53
REMARK   12  A    between atoms: C_56  and  C_57
REMARK   13  A    between atoms: C_59  and  C_61
REMARK   14  A    between atoms: C_62  and  O_64
REMARK   15  A    between atoms: C_65  and  O_67
REMARK   16  A    between atoms: C_68  and  O_70
REMARK                            x       y       z     vdW  Elec       q    Type
REMARK                         _______ _______ _______ _____ _____    ______ ____
ROOT
ATOM      1  C   UNL     1      -1.898   0.018   0.043  1.00  0.00    +0.000 C 
ATOM      2  C   UNL     1      -2.573  -1.228  -0.570  1.00  0.00    +0.000 C 
ATOM      3  C   UNL     1      -3.212  -2.142   0.495  1.00  0.00    +0.000 C 
ATOM      4  C   UNL     1      -2.473  -2.106   1.839  1.00  0.00    +0.000 C 
ATOM      5  C   UNL     1      -1.017  -1.781   1.624  1.00  0.00    +0.000 C 
ATOM      6  C   UNL     1      -0.068  -2.712   1.824  1.00  0.00    +0.000 C 
ATOM      7  C   UNL     1       1.381  -2.528   1.512  1.00  0.00    +0.000 C 
ATOM      8  C   UNL     1       1.767  -1.083   1.164  1.00  0.00    +0.000 C 
ATOM      9  C   UNL     1       0.658  -0.393   0.302  1.00  0.00    +0.000 C 
ATOM     10  C   UNL     1       1.120   1.004  -0.213  1.00  0.00    +0.000 C 
ATOM     11  C   UNL     1       2.516   1.003  -0.863  1.00  0.00    +0.000 C 
ATOM     12  C   UNL     1       3.572   0.386   0.065  1.00  0.00    +0.000 C 
ATOM     13  C   UNL     1       3.746   1.284   1.316  1.00  0.00    +0.000 C 
ATOM     14  C   UNL     1       3.097  -1.045   0.405  1.00  0.00    +0.000 C 
ATOM     15  C   UNL     1       4.335  -1.674   1.034  1.00  0.00    +0.000 C 
ATOM     16  C   UNL     1       5.432  -1.211   0.073  1.00  0.00    +0.000 C 
ATOM     17  O   UNL     1       6.654  -0.873   0.722  1.00  0.00    +0.000 OA
ATOM     18  C   UNL     1       7.275   0.124  -0.116  1.00  0.00    +0.000 C 
ATOM     19  C   UNL     1       8.337   0.842   0.712  1.00  0.00    +0.000 C 
ATOM     20  C   UNL     1       9.473  -0.121   1.050  1.00  0.00    +0.000 C 
ATOM     21  C   UNL     1       9.954  -0.915  -0.175  1.00  0.00    +0.000 C 
ATOM     22  C   UNL     1       9.761  -2.419   0.050  1.00  0.00    +0.000 C 
ATOM     23  C   UNL     1       9.210  -0.465  -1.432  1.00  0.00    +0.000 C 
ATOM     24  O   UNL     1       7.795  -0.516  -1.284  1.00  0.00    +0.000 OA
ATOM     25  C   UNL     1       6.100   1.043  -0.501  1.00  0.00    +0.000 C 
ATOM     26  C   UNL     1       6.314   1.874  -1.760  1.00  0.00    +0.000 C 
ATOM     27  C   UNL     1       4.926   0.066  -0.634  1.00  0.00    +0.000 C 
ATOM     28  C   UNL     1      -0.738  -0.377   1.054  1.00  0.00    +0.000 C 
ATOM     29  C   UNL     1      -0.706   0.608   2.249  1.00  0.00    +0.000 C 
ENDROOT
BRANCH   3  30
ATOM     30  O   UNL     1      -4.579  -1.807   0.738  1.00  0.00    +0.000 OA
ATOM     31  H   UNL     1      -4.993  -1.514  -0.097  1.00  0.00    +0.000 HD
ENDBRANCH   3  30
BRANCH  20  32
ATOM     32  O   UNL     1      10.573   0.639   1.562  1.00  0.00    +0.000 OA
ATOM     33  H   UNL     1      10.289   1.021   2.412  1.00  0.00    +0.000 HD
ENDBRANCH  20  32
BRANCH   1  34
ATOM     34  O   UNL     1      -2.909   0.804   0.691  1.00  0.00    +0.000 OA
BRANCH  34  40
ATOM     35  C   UNL     1      -5.144   1.616   0.127  1.00  0.00    +0.000 C 
ATOM     36  C   UNL     1      -5.613   2.940   0.750  1.00  0.00    +0.000 C 
ATOM     37  C   UNL     1      -4.606   3.453   1.776  1.00  0.00    +0.000 C 
ATOM     38  C   UNL     1      -3.210   3.581   1.160  1.00  0.00    +0.000 C 
ATOM     39  O   UNL     1      -3.109   2.993  -0.142  1.00  0.00    +0.000 OA
ATOM     40  C   UNL     1      -3.632   1.661  -0.195  1.00  0.00    +0.000 C 
BRANCH  36  41
ATOM     41  O   UNL     1      -6.881   2.741   1.403  1.00  0.00    +0.000 OA
ATOM     42  H   UNL     1      -7.273   3.621   1.546  1.00  0.00    +0.000 HD
ENDBRANCH  36  41
BRANCH  37  43
ATOM     43  O   UNL     1      -4.567   2.563   2.900  1.00  0.00    +0.000 OA
ATOM     44  H   UNL     1      -5.477   2.225   3.019  1.00  0.00    +0.000 HD
ENDBRANCH  37  43
BRANCH  35  45
ATOM     45  O   UNL     1      -5.871   1.449  -1.116  1.00  0.00    +0.000 OA
BRANCH  45  46
ATOM     46  C   UNL     1      -6.954   0.519  -1.005  1.00  0.00    +0.000 C 
ATOM     47  O   UNL     1      -6.383  -0.797  -1.132  1.00  0.00    +0.000 OA
ATOM     48  C   UNL     1      -7.333  -1.837  -1.403  1.00  0.00    +0.000 C 
ATOM     49  C   UNL     1      -8.287  -2.047  -0.229  1.00  0.00    +0.000 C 
ATOM     50  C   UNL     1      -8.049  -1.593  -2.744  1.00  0.00    +0.000 C 
ATOM     51  C   UNL     1      -7.825  -0.165  -3.264  1.00  0.00    +0.000 C 
ATOM     52  C   UNL     1      -7.962   0.848  -2.134  1.00  0.00    +0.000 C 
BRANCH  50  53
ATOM     53  O   UNL     1      -7.557  -2.490  -3.760  1.00  0.00    +0.000 OA
ATOM     54  H   UNL     1      -6.583  -2.438  -3.754  1.00  0.00    +0.000 HD
ENDBRANCH  50  53
BRANCH  51  55
ATOM     55  O   UNL     1      -8.800   0.122  -4.283  1.00  0.00    +0.000 OA
ATOM     56  H   UNL     1      -8.771  -0.640  -4.896  1.00  0.00    +0.000 HD
ENDBRANCH  51  55
BRANCH  52  57
ATOM     57  O   UNL     1      -9.319   0.800  -1.654  1.00  0.00    +0.000 OA
ATOM     58  H   UNL     1      -9.869   0.903  -2.458  1.00  0.00    +0.000 HD
ENDBRANCH  52  57
ENDBRANCH  45  46
ENDBRANCH  35  45
ENDBRANCH  34  40
ENDBRANCH   1  34
TORSDOF 11
