REMARK  Name = 
REMARK  2 active torsions:
REMARK  status: ('A' for Active; 'I' for Inactive)
REMARK    1  A    between atoms: C_1  and  C_2
REMARK    2  A    between atoms: C_15  and  C_16
REMARK                            x       y       z     vdW  Elec       q    Type
REMARK                         _______ _______ _______ _____ _____    ______ ____
ROOT
ATOM      1  C   UNL     1      -4.203  -0.010   0.460  1.00  0.00    +0.000 C 
ATOM      2  C   UNL     1      -2.726   0.273   0.537  1.00  0.00    +0.000 A 
ATOM      3  C   UNL     1      -2.277   1.155   1.516  1.00  0.00    +0.000 A 
ATOM      4  C   UNL     1      -0.923   1.442   1.636  1.00  0.00    +0.000 A 
ATOM      5  C   UNL     1       0.048   0.874   0.781  1.00  0.00    +0.000 A 
ATOM      6  C   UNL     1       1.465   1.357   1.078  1.00  0.00    +0.000 C 
ATOM      7  C   UNL     1       2.572   0.464   0.684  1.00  0.00    +0.000 A 
ATOM      8  O   UNL     1       3.571   0.219   1.572  1.00  0.00    +0.000 OA
ATOM      9  C   UNL     1       4.463  -0.586   0.935  1.00  0.00    +0.000 A 
ATOM     10  C   UNL     1       4.048  -0.847  -0.352  1.00  0.00    +0.000 A 
ATOM     11  C   UNL     1       2.822  -0.160  -0.513  1.00  0.00    +0.000 A 
ATOM     12  C   UNL     1       1.890  -0.074  -1.653  1.00  0.00    +0.000 C 
ATOM     13  C   UNL     1       0.526  -0.666  -1.291  1.00  0.00    +0.000 C 
ATOM     14  C   UNL     1      -0.388   0.005  -0.258  1.00  0.00    +0.000 A 
ATOM     15  C   UNL     1      -1.786  -0.337  -0.328  1.00  0.00    +0.000 A 
ATOM     16  C   UNL     1      -2.284  -1.330  -1.361  1.00  0.00    +0.000 C 
ENDROOT
TORSDOF 0
