REMARK  Name = /srv/my_project/app/compsite/backup/Dave/CORINA_stuff/newPDBs/SANC00616.pdb
AUTHORGENERATED BY OPEN BABEL 2.3.2
REMARK  26 active torsions:
REMARK  status: ('A' for Active; 'I' for Inactive)
REMARK    1  A    between atoms: C_2  and  O_3
REMARK    2  A    between atoms: O_3  and  C_4
REMARK    3  A    between atoms: C_15  and  O_17
REMARK    4  A    between atoms: C_20  and  C_21
REMARK    5  A    between atoms: C_26  and  C_27
REMARK    6  A    between atoms: C_28  and  O_29
REMARK    7  A    between atoms: C_28  and  C_30
REMARK    8  A    between atoms: C_30  and  C_32
REMARK    9  A    between atoms: C_30  and  C_33
REMARK   10  A    between atoms: C_33  and  C_35
REMARK   11  A    between atoms: C_35  and  C_36
REMARK   12  A    between atoms: C_36  and  C_37
REMARK   13  A    between atoms: C_37  and  C_38
REMARK   14  A    between atoms: C_37  and  C_39
REMARK   15  A    between atoms: C_42  and  O_44
REMARK   16  A    between atoms: C_45  and  O_47
REMARK   17  A    between atoms: O_47  and  C_48
REMARK   18  A    between atoms: C_52  and  O_54
REMARK   19  A    between atoms: C_55  and  O_57
REMARK   20  A    between atoms: C_58  and  O_60
REMARK   21  A    between atoms: O_60  and  C_61
REMARK   22  A    between atoms: C_61  and  C_63
REMARK   23  A    between atoms: C_64  and  C_65
REMARK   24  A    between atoms: C_71  and  O_73
REMARK   25  A    between atoms: O_73  and  C_74
REMARK   26  A    between atoms: C_74  and  C_75
REMARK                            x       y       z     vdW  Elec       q    Type
REMARK                         _______ _______ _______ _____ _____    ______ ____
ROOT
ATOM      1  C   UNL     1       0.056   2.494   0.199  1.00  0.00    +0.000 C 
ATOM      2  O   UNL     1       0.456   2.741  -1.150  1.00  0.00    +0.000 OA
ATOM      3  C   UNL     1       1.430   3.775  -1.309  1.00  0.00    +0.000 C 
ATOM      4  C   UNL     1       1.573   4.678  -0.083  1.00  0.00    +0.000 C 
ATOM      5  C   UNL     1       2.025   3.824   1.122  1.00  0.00    +0.000 C 
ATOM      6  C   UNL     1       1.277   2.468   1.139  1.00  0.00    +0.000 C 
ENDROOT
BRANCH   4   7
ATOM      7  O   UNL     1       2.458   5.769  -0.321  1.00  0.00    +0.000 OA
ATOM      8  H   UNL     1       2.157   6.240  -1.116  1.00  0.00    +0.000 HD
ENDBRANCH   4   7
BRANCH   5   9
ATOM      9  O   UNL     1       3.440   3.575   0.998  1.00  0.00    +0.000 OA
BRANCH   9  10
ATOM     10  C   UNL     1       4.074   3.207   2.231  1.00  0.00    +0.000 C 
ATOM     11  O   UNL     1       4.252   4.372   3.027  1.00  0.00    +0.000 OA
ATOM     12  C   UNL     1       5.391   4.354   3.890  1.00  0.00    +0.000 C 
ATOM     13  C   UNL     1       5.811   2.954   4.344  1.00  0.00    +0.000 C 
ATOM     14  C   UNL     1       6.153   2.075   3.134  1.00  0.00    +0.000 C 
ATOM     15  C   UNL     1       5.388   2.496   1.867  1.00  0.00    +0.000 C 
BRANCH  14  16
ATOM     16  O   UNL     1       7.569   2.154   2.905  1.00  0.00    +0.000 OA
ATOM     17  H   UNL     1       7.755   1.688   2.058  1.00  0.00    +0.000 HD
ENDBRANCH  14  16
BRANCH  13  18
ATOM     18  O   UNL     1       4.734   2.355   5.081  1.00  0.00    +0.000 OA
ATOM     19  H   UNL     1       5.110   1.591   5.555  1.00  0.00    +0.000 HD
ENDBRANCH  13  18
BRANCH  15  20
ATOM     20  O   UNL     1       5.032   1.326   1.082  1.00  0.00    +0.000 OA
BRANCH  20  21
ATOM     21  C   UNL     1       6.021   0.704   0.411  1.00  0.00    +0.000 C 
ATOM     22  O   UNL     1       7.211   0.973   0.494  1.00  0.00    +0.000 OA
BRANCH  21  23
ATOM     23  C   UNL     1       5.499  -0.374  -0.452  1.00  0.00    +0.000 C 
ATOM     24  C   UNL     1       4.205  -0.732  -0.493  1.00  0.00    +0.000 C 
BRANCH  24  25
ATOM     25  C   UNL     1       3.674  -1.809  -1.339  1.00  0.00    +0.000 A 
ATOM     26  C   UNL     1       2.636  -2.605  -0.836  1.00  0.00    +0.000 A 
ATOM     27  C   UNL     1       2.086  -3.627  -1.613  1.00  0.00    +0.000 A 
ATOM     28  C   UNL     1       2.548  -3.847  -2.908  1.00  0.00    +0.000 A 
ATOM     29  C   UNL     1       3.565  -3.048  -3.427  1.00  0.00    +0.000 A 
ATOM     30  C   UNL     1       4.124  -2.031  -2.647  1.00  0.00    +0.000 A 
ENDBRANCH  24  25
ENDBRANCH  21  23
ENDBRANCH  20  21
ENDBRANCH  15  20
ENDBRANCH   9  10
ENDBRANCH   5   9
BRANCH   6  31
ATOM     31  O   UNL     1       0.862   2.178   2.496  1.00  0.00    +0.000 OA
BRANCH  31  32
ATOM     32  C   UNL     1       1.157   0.931   2.961  1.00  0.00    +0.000 C 
ATOM     33  C   UNL     1       0.650   0.771   4.361  1.00  0.00    +0.000 C 
ATOM     34  O   UNL     1       1.756   0.058   2.351  1.00  0.00    +0.000 OA
ENDBRANCH  31  32
ENDBRANCH   6  31
BRANCH   1  35
ATOM     35  O   UNL     1      -0.640   1.246   0.330  1.00  0.00    +0.000 OA
BRANCH  35  36
ATOM     36  C   UNL     1      -1.632   1.032  -0.679  1.00  0.00    +0.000 C 
ATOM     37  C   UNL     1      -1.034   0.067  -1.727  1.00  0.00    +0.000 C 
ATOM     38  C   UNL     1      -2.078  -1.031  -1.887  1.00  0.00    +0.000 C 
ATOM     39  C   UNL     1      -1.639  -2.357  -2.528  1.00  0.00    +0.000 C 
ATOM     40  C   UNL     1      -0.988  -2.113  -3.897  1.00  0.00    +0.000 C 
ATOM     41  C   UNL     1      -0.935  -3.323  -4.773  1.00  0.00    +0.000 C 
ATOM     42  C   UNL     1      -1.587  -4.472  -4.525  1.00  0.00    +0.000 C 
ATOM     43  C   UNL     1      -1.589  -5.594  -5.537  1.00  0.00    +0.000 C 
ATOM     44  C   UNL     1      -2.997  -5.813  -6.112  1.00  0.00    +0.000 C 
ATOM     45  C   UNL     1      -4.113  -5.297  -5.191  1.00  0.00    +0.000 C 
ATOM     46  C   UNL     1      -3.746  -5.497  -3.717  1.00  0.00    +0.000 C 
ATOM     47  C   UNL     1      -2.470  -4.696  -3.289  1.00  0.00    +0.000 C 
ATOM     48  C   UNL     1      -1.681  -5.571  -2.287  1.00  0.00    +0.000 C 
ATOM     49  C   UNL     1      -2.869  -3.309  -2.647  1.00  0.00    +0.000 C 
ATOM     50  C   UNL     1      -3.616  -3.429  -1.291  1.00  0.00    +0.000 C 
ATOM     51  C   UNL     1      -3.933  -2.074  -0.633  1.00  0.00    +0.000 C 
ATOM     52  C   UNL     1      -2.676  -1.192  -0.467  1.00  0.00    +0.000 C 
ATOM     53  C   UNL     1      -1.701  -1.860   0.537  1.00  0.00    +0.000 C 
ATOM     54  C   UNL     1      -2.916   0.319  -0.097  1.00  0.00    +0.000 C 
BRANCH  54  55
ATOM     55  C   UNL     1      -3.175   0.655   1.401  1.00  0.00    +0.000 C 
ATOM     56  C   UNL     1      -4.462   0.056   1.968  1.00  0.00    +0.000 C 
BRANCH  55  57
ATOM     57  C   UNL     1      -3.249   2.174   1.596  1.00  0.00    +0.000 C 
ATOM     58  O   UNL     1      -3.677   2.912   0.705  1.00  0.00    +0.000 OA
BRANCH  57  59
ATOM     59  C   UNL     1      -2.797   2.719   2.944  1.00  0.00    +0.000 C 
BRANCH  59  60
ATOM     60  C   UNL     1      -2.822   4.249   2.985  1.00  0.00    +0.000 C 
BRANCH  60  61
ATOM     61  C   UNL     1      -2.300   4.884   4.287  1.00  0.00    +0.000 C 
ATOM     62  C   UNL     1      -3.106   4.452   5.511  1.00  0.00    +0.000 C 
ATOM     63  C   UNL     1      -0.811   4.616   4.505  1.00  0.00    +0.000 C 
ENDBRANCH  60  61
ENDBRANCH  59  60
ENDBRANCH  57  59
ENDBRANCH  55  57
ENDBRANCH  54  55
BRANCH  54  64
ATOM     64  O   UNL     1      -4.054   0.769  -0.869  1.00  0.00    +0.000 OA
ATOM     65  H   UNL     1      -4.169   1.725  -0.679  1.00  0.00    +0.000 HD
ENDBRANCH  54  64
BRANCH  44  66
ATOM     66  O   UNL     1      -3.177  -7.215  -6.330  1.00  0.00    +0.000 OA
ATOM     67  H   UNL     1      -4.047  -7.335  -6.749  1.00  0.00    +0.000 HD
ENDBRANCH  44  66
ENDBRANCH  35  36
ENDBRANCH   1  35
TORSDOF 20
