REMARK  Name = /srv/my_project/app/compsite/backup/Dave/CORINA_stuff/newPDBs/SANC00696.pdb
AUTHORGENERATED BY OPEN BABEL 2.3.2
REMARK  10 active torsions:
REMARK  status: ('A' for Active; 'I' for Inactive)
REMARK    1  A    between atoms: C_1  and  O_2
REMARK    2  A    between atoms: O_2  and  C_3
REMARK    3  A    between atoms: C_4  and  O_5
REMARK    4  A    between atoms: C_6  and  C_7
REMARK    5  A    between atoms: C_7  and  C_8
REMARK    6  A    between atoms: C_8  and  C_9
REMARK    7  A    between atoms: C_9  and  C_10
REMARK    8  A    between atoms: C_9  and  C_11
REMARK    9  A    between atoms: C_14  and  C_16
REMARK   10  A    between atoms: C_26  and  O_27
REMARK                            x       y       z     vdW  Elec       q    Type
REMARK                         _______ _______ _______ _____ _____    ______ ____
ROOT
ATOM      1  C   UNL     1       1.362   3.406  -0.031  1.00  0.00    +0.000 A 
ATOM      2  C   UNL     1       1.943   2.131  -0.187  1.00  0.00    +0.000 A 
ATOM      3  C   UNL     1       1.189   0.978  -0.436  1.00  0.00    +0.000 A 
ATOM      4  C   UNL     1      -0.204   1.112  -0.500  1.00  0.00    +0.000 A 
ATOM      5  O   UNL     1      -0.933  -0.030  -0.718  1.00  0.00    +0.000 OA
ATOM      6  C   UNL     1      -2.262   0.031  -0.175  1.00  0.00    +0.000 C 
ATOM      7  C   UNL     1      -3.011   1.181  -0.830  1.00  0.00    +0.000 C 
ATOM      8  C   UNL     1      -2.275   2.452  -0.516  1.00  0.00    +0.000 C 
ATOM      9  O   UNL     1      -2.841   3.540  -0.429  1.00  0.00    +0.000 OA
ATOM     10  C   UNL     1      -0.804   2.372  -0.369  1.00  0.00    +0.000 A 
ATOM     11  C   UNL     1      -0.028   3.523  -0.133  1.00  0.00    +0.000 A 
ENDROOT
BRANCH   6  12
ATOM     12  C   UNL     1      -2.874  -1.349  -0.350  1.00  0.00    +0.000 A 
ATOM     13  C   UNL     1      -2.295  -2.429   0.344  1.00  0.00    +0.000 A 
ATOM     14  C   UNL     1      -2.811  -3.720   0.229  1.00  0.00    +0.000 A 
ATOM     15  C   UNL     1      -3.916  -3.957  -0.582  1.00  0.00    +0.000 A 
ATOM     16  C   UNL     1      -4.501  -2.903  -1.279  1.00  0.00    +0.000 A 
ATOM     17  C   UNL     1      -3.985  -1.609  -1.166  1.00  0.00    +0.000 A 
ENDBRANCH   6  12
BRANCH   1  19
ATOM     18  C   UNL     1       1.835   5.720   0.398  1.00  0.00    +0.000 C 
ATOM     19  O   UNL     1       2.292   4.388   0.204  1.00  0.00    +0.000 OA
ENDBRANCH   1  19
BRANCH   2  20
ATOM     20  O   UNL     1       3.309   2.016  -0.081  1.00  0.00    +0.000 OA
ATOM     21  H   UNL     1       3.629   2.926   0.085  1.00  0.00    +0.000 HD
ENDBRANCH   2  20
BRANCH  11  22
ATOM     22  O   UNL     1      -0.627   4.751  -0.006  1.00  0.00    +0.000 OA
ATOM     23  H   UNL     1      -1.598   4.650  -0.135  1.00  0.00    +0.000 HD
ENDBRANCH  11  22
BRANCH   3  24
ATOM     24  C   UNL     1       1.852  -0.374  -0.581  1.00  0.00    +0.000 C 
BRANCH  24  25
ATOM     25  C   UNL     1       1.932  -1.106   0.764  1.00  0.00    +0.000 C 
BRANCH  25  26
ATOM     26  C   UNL     1       2.419  -2.561   0.637  1.00  0.00    +0.000 C 
ATOM     27  C   UNL     1       3.853  -2.651   0.116  1.00  0.00    +0.000 C 
ATOM     28  C   UNL     1       2.316  -3.263   1.994  1.00  0.00    +0.000 C 
ENDBRANCH  25  26
ENDBRANCH  24  25
ENDBRANCH   3  24
TORSDOF 7
