REMARK  Name = SANCDB_00977_minRM1.pdb
AUTHORGENERATED BY OPEN BABEL 2.3.2
REMARK  11 active torsions:
REMARK  status: ('A' for Active; 'I' for Inactive)
REMARK    1  A    between atoms: C_4  and  C_5
REMARK    2  A    between atoms: C_4  and  C_34
REMARK    3  A    between atoms: C_9  and  C_33
REMARK    4  A    between atoms: C_10  and  C_32
REMARK    5  A    between atoms: C_13  and  C_31
REMARK    6  A    between atoms: C_16  and  C_28
REMARK    7  A    between atoms: C_16  and  C_29
REMARK    8  A    between atoms: C_21  and  O_26
REMARK    9  A    between atoms: C_23  and  C_24
REMARK   10  A    between atoms: O_26  and  C_27
REMARK   11  A    between atoms: C_29  and  O_30
REMARK                            x       y       z     vdW  Elec       q    Type
REMARK                         _______ _______ _______ _____ _____    ______ ____
ROOT
ATOM      1  C   UNL     1       5.270  -1.707   0.489  1.00  0.00    +0.000 C 
ATOM      2  C   UNL     1       5.670  -0.394   1.120  1.00  0.00    +0.000 C 
ATOM      3  O   UNL     1       6.474  -0.385   2.054  1.00  0.00    +0.000 OA
ATOM      4  C   UNL     1       5.125   0.901   0.490  1.00  0.00    +0.000 C 
ATOM      5  C   UNL     1       5.344   2.047   1.510  1.00  0.00    +0.000 C 
ATOM      6  C   UNL     1       3.584   0.727   0.215  1.00  0.00    +0.000 C 
ATOM      7  C   UNL     1       2.910   1.974  -0.381  1.00  0.00    +0.000 C 
ATOM      8  C   UNL     1       1.382   1.858  -0.467  1.00  0.00    +0.000 C 
ATOM      9  C   UNL     1       0.853   0.625  -1.262  1.00  0.00    +0.000 C 
ATOM     10  C   UNL     1      -0.787   0.540  -1.236  1.00  0.00    +0.000 C 
ATOM     11  C   UNL     1      -1.348  -0.365  -2.380  1.00  0.00    +0.000 C 
ATOM     12  C   UNL     1      -2.879  -0.538  -2.369  1.00  0.00    +0.000 C 
ATOM     13  C   UNL     1      -3.471  -1.028  -1.023  1.00  0.00    +0.000 C 
ATOM     14  C   UNL     1      -5.016  -0.831  -1.060  1.00  0.00    +0.000 C 
ATOM     15  C   UNL     1      -5.618  -0.674   0.338  1.00  0.00    +0.000 C 
ATOM     16  C   UNL     1      -5.097   0.598   1.065  1.00  0.00    +0.000 C 
ATOM     17  C   UNL     1      -3.660   0.969   0.591  1.00  0.00    +0.000 C 
ATOM     18  C   UNL     1      -2.852  -0.280   0.201  1.00  0.00    +0.000 C 
ATOM     19  C   UNL     1      -1.341  -0.086   0.039  1.00  0.00    +0.000 C 
ATOM     20  C   UNL     1      -0.550  -0.706   0.928  1.00  0.00    +0.000 C 
ATOM     21  C   UNL     1       0.908  -0.989   0.792  1.00  0.00    +0.000 C 
ATOM     22  C   UNL     1       1.531  -0.660  -0.613  1.00  0.00    +0.000 C 
ATOM     23  C   UNL     1       3.157  -0.589  -0.534  1.00  0.00    +0.000 C 
ATOM     24  C   UNL     1       3.735  -0.717  -1.969  1.00  0.00    +0.000 C 
ATOM     25  C   UNL     1       3.760  -1.773   0.283  1.00  0.00    +0.000 C 
ATOM     26  C   UNL     1      -6.032   1.786   0.751  1.00  0.00    +0.000 C 
ATOM     27  C   UNL     1      -3.170  -2.543  -0.888  1.00  0.00    +0.000 C 
ATOM     28  C   UNL     1      -1.349   1.983  -1.406  1.00  0.00    +0.000 C 
ATOM     29  C   UNL     1       1.264   0.811  -2.755  1.00  0.00    +0.000 C 
ATOM     30  C   UNL     1       5.983   1.229  -0.741  1.00  0.00    +0.000 C 
ENDROOT
BRANCH  21  31
ATOM     31  O   UNL     1       1.066  -2.409   0.992  1.00  0.00    +0.000 OA
ATOM     32  C   UNL     1       1.066  -2.823   2.355  1.00  0.00    +0.000 C 
ENDBRANCH  21  31
BRANCH  16  33
ATOM     33  C   UNL     1      -5.087   0.354   2.595  1.00  0.00    +0.000 C 
BRANCH  33  34
ATOM     34  O   UNL     1      -6.359  -0.061   3.078  1.00  0.00    +0.000 OA
ATOM     35  H   UNL     1      -6.952   0.709   3.053  1.00  0.00    +0.000 HD
ENDBRANCH  33  34
ENDBRANCH  16  33
TORSDOF 3
