REMARK  Name = SANCDB_01076_minRM1.pdb
AUTHORGENERATED BY OPEN BABEL 2.3.2
REMARK  7 active torsions:
REMARK  status: ('A' for Active; 'I' for Inactive)
REMARK    1  A    between atoms: C_1  and  C_2
REMARK    2  A    between atoms: C_3  and  C_4
REMARK    3  A    between atoms: C_3  and  C_5
REMARK    4  A    between atoms: C_5  and  O_7
REMARK    5  A    between atoms: O_7  and  C_8
REMARK    6  A    between atoms: C_10  and  C_27
REMARK    7  A    between atoms: C_18  and  O_26
REMARK                            x       y       z     vdW  Elec       q    Type
REMARK                         _______ _______ _______ _____ _____    ______ ____
ROOT
ATOM      1  C   UNL     1       0.269  -0.250   0.317  1.00  0.00    +0.000 C 
ATOM      2  C   UNL     1       0.309  -1.225   1.526  1.00  0.00    +0.000 C 
ATOM      3  C   UNL     1      -0.966  -2.082   1.741  1.00  0.00    +0.000 C 
ATOM      4  C   UNL     1      -1.224  -3.044   0.600  1.00  0.00    +0.000 C 
ATOM      5  O   UNL     1      -0.603  -4.066   0.355  1.00  0.00    +0.000 OA
ATOM      6  C   UNL     1      -2.280  -2.527  -0.265  1.00  0.00    +0.000 C 
ATOM      7  C   UNL     1      -2.653  -1.437   0.403  1.00  0.00    +0.000 C 
ATOM      8  O   UNL     1      -2.139  -1.249   1.682  1.00  0.00    +0.000 OA
ATOM      9  C   UNL     1      -3.358  -0.295  -0.141  1.00  0.00    +0.000 C 
ATOM     10  C   UNL     1      -4.608  -0.015   0.260  1.00  0.00    +0.000 C 
ATOM     11  C   UNL     1      -2.568   0.506  -1.177  1.00  0.00    +0.000 C 
ATOM     12  C   UNL     1      -1.433   1.440  -0.658  1.00  0.00    +0.000 C 
ATOM     13  C   UNL     1      -0.631   0.990   0.562  1.00  0.00    +0.000 C 
ATOM     14  C   UNL     1      -0.076   2.314   0.976  1.00  0.00    +0.000 C 
ATOM     15  C   UNL     1       1.030   2.633   1.657  1.00  0.00    +0.000 C 
ATOM     16  C   UNL     1      -1.054   3.344   0.529  1.00  0.00    +0.000 C 
ATOM     17  O   UNL     1      -1.067   4.518   0.846  1.00  0.00    +0.000 OA
ATOM     18  O   UNL     1      -1.970   2.723  -0.271  1.00  0.00    +0.000 OA
ATOM     19  C   UNL     1      -0.945  -2.816   3.074  1.00  0.00    +0.000 C 
ENDROOT
BRANCH  11  20
ATOM     20  O   UNL     1      -3.466   1.272  -1.992  1.00  0.00    +0.000 OA
ATOM     21  H   UNL     1      -3.519   2.157  -1.582  1.00  0.00    +0.000 HD
ENDBRANCH  11  20
BRANCH   1  22
ATOM     22  O   UNL     1       1.636   0.130   0.037  1.00  0.00    +0.000 OA
BRANCH  22  23
ATOM     23  C   UNL     1       1.945   0.318  -1.272  1.00  0.00    +0.000 C 
ATOM     24  O   UNL     1       1.154   0.254  -2.199  1.00  0.00    +0.000 OA
BRANCH  23  27
ATOM     25  C   UNL     1       3.682  -0.925  -3.429  1.00  0.00    +0.000 C 
ATOM     26  C   UNL     1       4.125   0.067  -2.400  1.00  0.00    +0.000 C 
ATOM     27  C   UNL     1       3.394   0.612  -1.407  1.00  0.00    +0.000 C 
ATOM     28  C   UNL     1       3.977   1.583  -0.425  1.00  0.00    +0.000 C 
ENDBRANCH  23  27
ENDBRANCH  22  23
ENDBRANCH   1  22
TORSDOF 4
