REMARK  Name = /srv/my_project/app/compsite/backup/Dave/CORINA_stuff/newPDBs/SANC00307.pdb
AUTHORGENERATED BY OPEN BABEL 2.3.2
REMARK  5 active torsions:
REMARK  status: ('A' for Active; 'I' for Inactive)
REMARK    1  A    between atoms: C_4  and  C_5
REMARK    2  A    between atoms: C_8  and  O_9
REMARK    3  A    between atoms: C_13  and  C_14
REMARK    4  A    between atoms: C_14  and  C_15
REMARK    5  A    between atoms: C_18  and  O_19
REMARK                            x       y       z     vdW  Elec       q    Type
REMARK                         _______ _______ _______ _____ _____    ______ ____
ROOT
ATOM      1  O   UNL     1       0.022  -4.623   1.483  1.00  0.00    +0.000 OA
ATOM      2  C   UNL     1      -0.189  -3.533   0.966  1.00  0.00    +0.000 C 
ATOM      3  C   UNL     1      -1.244  -2.563   1.435  1.00  0.00    +0.000 C 
ATOM      4  C   UNL     1      -1.058  -1.483   0.439  1.00  0.00    +0.000 C 
ATOM      5  C   UNL     1      -0.051  -1.808  -0.371  1.00  0.00    +0.000 C 
ATOM      6  O   UNL     1       0.514  -3.061  -0.115  1.00  0.00    +0.000 OA
ENDROOT
BRANCH   4   7
ATOM      7  C   UNL     1      -1.849  -0.257   0.470  1.00  0.00    +0.000 A 
ATOM      8  C   UNL     1      -1.873   0.537   1.625  1.00  0.00    +0.000 A 
ATOM      9  C   UNL     1      -2.624   1.714   1.663  1.00  0.00    +0.000 A 
ATOM     10  C   UNL     1      -3.360   2.099   0.549  1.00  0.00    +0.000 A 
ATOM     11  C   UNL     1      -3.353   1.314  -0.604  1.00  0.00    +0.000 A 
ATOM     12 BR   UNL     1      -4.353   1.823  -2.130  1.00  0.00    +0.000 Br
ATOM     13  C   UNL     1      -2.601   0.138  -0.645  1.00  0.00    +0.000 A 
BRANCH  10  14
ATOM     14  O   UNL     1      -4.074   3.259   0.643  1.00  0.00    +0.000 OA
ATOM     15  H   UNL     1      -4.542   3.386  -0.203  1.00  0.00    +0.000 HD
ENDBRANCH  10  14
ENDBRANCH   4   7
BRANCH   5  16
ATOM     16  C   UNL     1       0.566  -1.028  -1.495  1.00  0.00    +0.000 C 
BRANCH  16  17
ATOM     17  C   UNL     1       1.784  -0.249  -1.055  1.00  0.00    +0.000 A 
ATOM     18  C   UNL     1       3.048  -0.857  -1.031  1.00  0.00    +0.000 A 
ATOM     19  C   UNL     1       4.167  -0.141  -0.603  1.00  0.00    +0.000 A 
ATOM     20  C   UNL     1       4.026   1.179  -0.194  1.00  0.00    +0.000 A 
ATOM     21  C   UNL     1       2.781   1.799  -0.202  1.00  0.00    +0.000 A 
ATOM     22  C   UNL     1       1.661   1.083  -0.629  1.00  0.00    +0.000 A 
BRANCH  20  23
ATOM     23  O   UNL     1       5.146   1.840   0.215  1.00  0.00    +0.000 OA
ATOM     24  H   UNL     1       4.896   2.744   0.467  1.00  0.00    +0.000 HD
ENDBRANCH  20  23
ENDBRANCH  16  17
ENDBRANCH   5  16
TORSDOF 5
