REMARK  Name = /srv/my_project/app/compsite/backup/Dave/CORINA_stuff/newPDBs/SANC00344.pdb
AUTHORGENERATED BY OPEN BABEL 2.3.2
REMARK  10 active torsions:
REMARK  status: ('A' for Active; 'I' for Inactive)
REMARK    1  A    between atoms: C_1  and  C_2
REMARK    2  A    between atoms: C_2  and  C_3
REMARK    3  A    between atoms: C_4  and  C_5
REMARK    4  A    between atoms: C_5  and  C_6
REMARK    5  A    between atoms: C_7  and  O_8
REMARK    6  A    between atoms: C_13  and  C_14
REMARK    7  A    between atoms: C_19  and  C_20
REMARK    8  A    between atoms: C_19  and  C_21
REMARK    9  A    between atoms: C_25  and  O_26
REMARK   10  A    between atoms: C_30  and  O_31
REMARK                            x       y       z     vdW  Elec       q    Type
REMARK                         _______ _______ _______ _____ _____    ______ ____
ROOT
ATOM      1  C   UNL     1       3.893  -0.437   0.916  1.00  0.00    +0.000 A 
ATOM      2  C   UNL     1       4.124   0.705   1.702  1.00  0.00    +0.000 A 
ATOM      3  C   UNL     1       3.096   1.589   2.027  1.00  0.00    +0.000 A 
ATOM      4  C   UNL     1       1.811   1.364   1.544  1.00  0.00    +0.000 A 
ATOM      5  O   UNL     1       0.847   2.274   1.896  1.00  0.00    +0.000 OA
ATOM      6  C   UNL     1      -0.422   2.081   1.408  1.00  0.00    +0.000 A 
ATOM      7  C   UNL     1      -0.835   1.078   0.620  1.00  0.00    +0.000 A 
ATOM      8  C   UNL     1       0.179   0.058   0.246  1.00  0.00    +0.000 A 
ATOM      9  O   UNL     1      -0.082  -0.926  -0.441  1.00  0.00    +0.000 OA
ATOM     10  C   UNL     1       1.553   0.258   0.742  1.00  0.00    +0.000 A 
ATOM     11  C   UNL     1       2.589  -0.639   0.428  1.00  0.00    +0.000 A 
ENDROOT
BRANCH   7  12
ATOM     12  C   UNL     1      -2.239   0.986   0.177  1.00  0.00    +0.000 A 
ATOM     13  C   UNL     1      -2.975  -0.176   0.459  1.00  0.00    +0.000 A 
ATOM     14  C   UNL     1      -4.312  -0.300   0.057  1.00  0.00    +0.000 A 
ATOM     15  C   UNL     1      -5.066  -1.506   0.355  1.00  0.00    +0.000 C 
ATOM     16  C   UNL     1      -6.332  -1.571  -0.065  1.00  0.00    +0.000 C 
ATOM     17  C   UNL     1      -7.013  -0.458  -0.829  1.00  0.00    +0.000 C 
ATOM     18  C   UNL     1      -8.250   0.005  -0.050  1.00  0.00    +0.000 C 
ATOM     19  C   UNL     1      -7.436  -0.976  -2.209  1.00  0.00    +0.000 C 
ATOM     20  O   UNL     1      -6.219   0.724  -1.064  1.00  0.00    +0.000 OA
ATOM     21  C   UNL     1      -4.922   0.746  -0.636  1.00  0.00    +0.000 A 
ATOM     22  C   UNL     1      -4.205   1.906  -0.930  1.00  0.00    +0.000 A 
ATOM     23  C   UNL     1      -2.874   2.021  -0.528  1.00  0.00    +0.000 A 
BRANCH  23  24
ATOM     24  O   UNL     1      -2.175   3.158  -0.835  1.00  0.00    +0.000 OA
ATOM     25  H   UNL     1      -2.728   3.725  -1.398  1.00  0.00    +0.000 HD
ENDBRANCH  23  24
ENDBRANCH   7  12
BRANCH   2  26
ATOM     26  O   UNL     1       5.358   1.024   2.196  1.00  0.00    +0.000 OA
ATOM     27  H   UNL     1       6.033   0.574   1.660  1.00  0.00    +0.000 HD
ENDBRANCH   2  26
BRANCH  11  28
ATOM     28  O   UNL     1       2.366  -1.740  -0.363  1.00  0.00    +0.000 OA
ATOM     29  H   UNL     1       1.417  -1.749  -0.625  1.00  0.00    +0.000 HD
ENDBRANCH  11  28
BRANCH   1  30
ATOM     30  C   UNL     1       4.998  -1.426   0.605  1.00  0.00    +0.000 C 
BRANCH  30  34
ATOM     31  C   UNL     1       8.146  -1.108   0.730  1.00  0.00    +0.000 C 
ATOM     32  C   UNL     1       7.260  -0.780  -0.440  1.00  0.00    +0.000 C 
ATOM     33  C   UNL     1       8.002  -0.260  -1.645  1.00  0.00    +0.000 C 
ATOM     34  C   UNL     1       5.920  -0.929  -0.478  1.00  0.00    +0.000 C 
ENDBRANCH  30  34
ENDBRANCH   1  30
TORSDOF 6
