REMARK  Name = /srv/my_project/app/compsite/backup/Dave/CORINA_stuff/newPDBs/SANC00395.pdb
AUTHORGENERATED BY OPEN BABEL 2.3.2
REMARK  31 active torsions:
REMARK  status: ('A' for Active; 'I' for Inactive)
REMARK    1  A    between atoms: C_2  and  O_3
REMARK    2  A    between atoms: O_3  and  C_4
REMARK    3  A    between atoms: C_7  and  O_9
REMARK    4  A    between atoms: C_20  and  C_21
REMARK    5  A    between atoms: C_25  and  O_27
REMARK    6  A    between atoms: O_27  and  C_28
REMARK    7  A    between atoms: C_31  and  C_33
REMARK    8  A    between atoms: C_33  and  O_34
REMARK    9  A    between atoms: C_35  and  O_37
REMARK   10  A    between atoms: C_38  and  O_40
REMARK   11  A    between atoms: C_41  and  O_43
REMARK   12  A    between atoms: C_44  and  C_46
REMARK   13  A    between atoms: C_46  and  C_48
REMARK   14  A    between atoms: C_46  and  C_49
REMARK   15  A    between atoms: C_49  and  O_51
REMARK   16  A    between atoms: C_49  and  C_52
REMARK   17  A    between atoms: C_52  and  C_53
REMARK   18  A    between atoms: C_54  and  C_55
REMARK   19  A    between atoms: C_54  and  C_56
REMARK   20  A    between atoms: C_57  and  C_58
REMARK   21  A    between atoms: C_60  and  C_62
REMARK   22  A    between atoms: C_62  and  O_63
REMARK   23  A    between atoms: O_63  and  C_64
REMARK   24  A    between atoms: C_67  and  C_69
REMARK   25  A    between atoms: C_69  and  O_70
REMARK   26  A    between atoms: C_71  and  O_73
REMARK   27  A    between atoms: C_74  and  O_76
REMARK   28  A    between atoms: C_77  and  O_79
REMARK   29  A    between atoms: C_80  and  O_82
REMARK   30  A    between atoms: C_83  and  O_85
REMARK   31  A    between atoms: C_86  and  O_88
REMARK                            x       y       z     vdW  Elec       q    Type
REMARK                         _______ _______ _______ _____ _____    ______ ____
ROOT
ATOM      1  C   UNL     1       2.501   1.343   1.495  1.00  0.00    +0.000 C 
ATOM      2  C   UNL     1       2.748   1.705   2.974  1.00  0.00    +0.000 C 
ATOM      3  C   UNL     1       3.534   0.621   3.729  1.00  0.00    +0.000 C 
ATOM      4  C   UNL     1       3.289  -0.792   3.180  1.00  0.00    +0.000 C 
ATOM      5  C   UNL     1       1.906  -0.880   2.586  1.00  0.00    +0.000 C 
ATOM      6  C   UNL     1       0.942  -1.598   3.188  1.00  0.00    +0.000 C 
ATOM      7  C   UNL     1      -0.488  -1.630   2.755  1.00  0.00    +0.000 C 
ATOM      8  C   UNL     1      -0.754  -0.947   1.404  1.00  0.00    +0.000 C 
ATOM      9  C   UNL     1       0.121   0.331   1.235  1.00  0.00    +0.000 C 
ATOM     10  C   UNL     1      -0.269   1.102  -0.054  1.00  0.00    +0.000 C 
ATOM     11  C   UNL     1      -1.780   1.353  -0.197  1.00  0.00    +0.000 C 
ATOM     12  C   UNL     1      -2.604   0.054  -0.101  1.00  0.00    +0.000 C 
ATOM     13  C   UNL     1      -2.306  -0.859  -1.315  1.00  0.00    +0.000 C 
ATOM     14  C   UNL     1      -2.238  -0.577   1.262  1.00  0.00    +0.000 C 
ATOM     15  C   UNL     1      -3.255  -1.690   1.423  1.00  0.00    +0.000 C 
ATOM     16  C   UNL     1      -4.568  -1.104   0.853  1.00  0.00    +0.000 C 
ATOM     17  C   UNL     1      -4.153   0.225   0.100  1.00  0.00    +0.000 C 
ATOM     18  C   UNL     1       1.667   0.001   1.345  1.00  0.00    +0.000 C 
ATOM     19  C   UNL     1       2.147  -0.813   0.117  1.00  0.00    +0.000 C 
ENDROOT
BRANCH  17  20
ATOM     20  C   UNL     1      -5.028   0.622  -1.132  1.00  0.00    +0.000 C 
ATOM     21  C   UNL     1      -4.505   1.867  -1.865  1.00  0.00    +0.000 C 
BRANCH  20  22
ATOM     22  C   UNL     1      -6.535   0.863  -0.797  1.00  0.00    +0.000 C 
BRANCH  22  23
ATOM     23  O   UNL     1      -7.182  -0.365  -0.463  1.00  0.00    +0.000 OA
ATOM     24  H   UNL     1      -6.555  -1.081  -0.674  1.00  0.00    +0.000 HD
ENDBRANCH  22  23
BRANCH  22  25
ATOM     25  C   UNL     1      -6.784   1.874   0.338  1.00  0.00    +0.000 C 
BRANCH  25  26
ATOM     26  C   UNL     1      -8.229   2.303   0.397  1.00  0.00    +0.000 C 
ATOM     27  C   UNL     1      -8.752   3.516   0.133  1.00  0.00    +0.000 C 
ATOM     28  C   UNL     1     -10.233   3.754   0.273  1.00  0.00    +0.000 C 
ATOM     29  C   UNL     1      -7.976   4.721  -0.323  1.00  0.00    +0.000 C 
ENDBRANCH  25  26
ENDBRANCH  22  25
ENDBRANCH  20  22
ENDBRANCH  17  20
BRANCH   3  30
ATOM     30  O   UNL     1       4.929   0.929   3.676  1.00  0.00    +0.000 OA
ATOM     31  H   UNL     1       5.399   0.245   4.183  1.00  0.00    +0.000 HD
ENDBRANCH   3  30
BRANCH  16  32
ATOM     32  O   UNL     1      -5.224  -2.046  -0.011  1.00  0.00    +0.000 OA
BRANCH  32  33
ATOM     33  C   UNL     1      -5.650  -3.250   0.661  1.00  0.00    +0.000 C 
ATOM     34  O   UNL     1      -5.728  -4.311  -0.295  1.00  0.00    +0.000 OA
ATOM     35  C   UNL     1      -6.843  -4.302  -1.188  1.00  0.00    +0.000 C 
ATOM     36  C   UNL     1      -8.145  -3.754  -0.579  1.00  0.00    +0.000 C 
ATOM     37  C   UNL     1      -8.090  -3.920   0.932  1.00  0.00    +0.000 C 
ATOM     38  C   UNL     1      -6.953  -3.060   1.482  1.00  0.00    +0.000 C 
BRANCH  38  39
ATOM     39  O   UNL     1      -6.747  -3.406   2.865  1.00  0.00    +0.000 OA
ATOM     40  H   UNL     1      -7.644  -3.400   3.259  1.00  0.00    +0.000 HD
ENDBRANCH  38  39
BRANCH  37  41
ATOM     41  O   UNL     1      -9.326  -3.507   1.535  1.00  0.00    +0.000 OA
ATOM     42  H   UNL     1     -10.020  -3.868   0.944  1.00  0.00    +0.000 HD
ENDBRANCH  37  41
BRANCH  36  43
ATOM     43  O   UNL     1      -9.291  -4.447  -1.093  1.00  0.00    +0.000 OA
ATOM     44  H   UNL     1      -9.229  -4.362  -2.069  1.00  0.00    +0.000 HD
ENDBRANCH  36  43
BRANCH  35  45
ATOM     45  C   UNL     1      -6.500  -3.614  -2.514  1.00  0.00    +0.000 C 
BRANCH  45  46
ATOM     46  O   UNL     1      -7.601  -3.712  -3.415  1.00  0.00    +0.000 OA
ATOM     47  H   UNL     1      -7.302  -3.331  -4.261  1.00  0.00    +0.000 HD
ENDBRANCH  45  46
ENDBRANCH  35  45
ENDBRANCH  32  33
ENDBRANCH  16  32
BRANCH   1  48
ATOM     48  O   UNL     1       3.790   1.235   0.873  1.00  0.00    +0.000 OA
BRANCH  48  49
ATOM     49  C   UNL     1       3.954   2.016  -0.309  1.00  0.00    +0.000 C 
ATOM     50  O   UNL     1       4.949   1.415  -1.138  1.00  0.00    +0.000 OA
ATOM     51  C   UNL     1       6.267   1.341  -0.549  1.00  0.00    +0.000 C 
ATOM     52  C   UNL     1       6.556   2.471   0.453  1.00  0.00    +0.000 C 
ATOM     53  C   UNL     1       5.818   3.722  -0.013  1.00  0.00    +0.000 C 
ATOM     54  C   UNL     1       4.305   3.490   0.033  1.00  0.00    +0.000 C 
BRANCH  54  55
ATOM     55  O   UNL     1       3.705   4.429  -0.879  1.00  0.00    +0.000 OA
ATOM     56  H   UNL     1       2.746   4.266  -0.891  1.00  0.00    +0.000 HD
ENDBRANCH  54  55
BRANCH  53  57
ATOM     57  O   UNL     1       6.178   4.834   0.825  1.00  0.00    +0.000 OA
ATOM     58  H   UNL     1       5.685   5.597   0.465  1.00  0.00    +0.000 HD
ENDBRANCH  53  57
BRANCH  52  59
ATOM     59  O   UNL     1       7.966   2.737   0.524  1.00  0.00    +0.000 OA
ATOM     60  H   UNL     1       8.025   3.619   0.951  1.00  0.00    +0.000 HD
ENDBRANCH  52  59
BRANCH  51  61
ATOM     61  C   UNL     1       6.516  -0.045   0.079  1.00  0.00    +0.000 C 
BRANCH  61  62
ATOM     62  O   UNL     1       6.899  -1.001  -0.926  1.00  0.00    +0.000 OA
BRANCH  62  63
ATOM     63  C   UNL     1       8.326  -1.133  -1.022  1.00  0.00    +0.000 C 
ATOM     64  O   UNL     1       8.957   0.126  -1.198  1.00  0.00    +0.000 OA
ATOM     65  C   UNL     1      10.391   0.033  -1.270  1.00  0.00    +0.000 C 
ATOM     66  C   UNL     1      10.832  -0.848  -2.450  1.00  0.00    +0.000 C 
ATOM     67  C   UNL     1      10.134  -2.209  -2.377  1.00  0.00    +0.000 C 
ATOM     68  C   UNL     1       8.621  -2.049  -2.220  1.00  0.00    +0.000 C 
BRANCH  68  69
ATOM     69  O   UNL     1       8.034  -3.350  -2.046  1.00  0.00    +0.000 OA
ATOM     70  H   UNL     1       7.096  -3.169  -1.827  1.00  0.00    +0.000 HD
ENDBRANCH  68  69
BRANCH  67  71
ATOM     71  O   UNL     1      10.418  -2.950  -3.576  1.00  0.00    +0.000 OA
ATOM     72  H   UNL     1       9.808  -3.715  -3.550  1.00  0.00    +0.000 HD
ENDBRANCH  67  71
BRANCH  66  73
ATOM     73  O   UNL     1      10.508  -0.232  -3.704  1.00  0.00    +0.000 OA
ATOM     74  H   UNL     1      10.597  -0.946  -4.368  1.00  0.00    +0.000 HD
ENDBRANCH  66  73
BRANCH  65  75
ATOM     75  C   UNL     1      10.922   1.464  -1.382  1.00  0.00    +0.000 C 
BRANCH  75  76
ATOM     76  O   UNL     1      10.649   2.173  -0.170  1.00  0.00    +0.000 OA
ATOM     77  H   UNL     1       9.668   2.186  -0.074  1.00  0.00    +0.000 HD
ENDBRANCH  75  76
ENDBRANCH  65  75
ENDBRANCH  62  63
ENDBRANCH  61  62
ENDBRANCH  51  61
ENDBRANCH  48  49
ENDBRANCH   1  48
TORSDOF 26
