REMARK  Name = /srv/my_project/app/compsite/backup/Dave/CORINA_stuff/newPDBs/SANC00277.pdb
AUTHORGENERATED BY OPEN BABEL 2.3.2
REMARK  6 active torsions:
REMARK  status: ('A' for Active; 'I' for Inactive)
REMARK    1  A    between atoms: C_2  and  C_3
REMARK    2  A    between atoms: C_3  and  C_4
REMARK    3  A    between atoms: C_3  and  C_6
REMARK    4  A    between atoms: C_6  and  C_9
REMARK    5  A    between atoms: C_10  and  C_11
REMARK    6  A    between atoms: C_11  and  C_12
REMARK                            x       y       z     vdW  Elec       q    Type
REMARK                         _______ _______ _______ _____ _____    ______ ____
ROOT
ATOM      1  C   UNL     1      -0.898   0.836   0.699  1.00  0.00    +0.000 C 
ATOM      2 CL   UNL     1      -0.883   2.638   0.785  1.00  0.00    +0.000 Cl
ENDROOT
BRANCH   1   3
ATOM      3  C   UNL     1      -1.895   0.270  -0.376  1.00  0.00    +0.000 C 
ATOM      4  C   UNL     1      -3.316   0.826  -0.158  1.00  0.00    +0.000 C 
ATOM      5 CL   UNL     1      -1.396   0.773  -2.051  1.00  0.00    +0.000 Cl
BRANCH   3   7
ATOM      6  C   UNL     1      -2.822  -2.112   0.012  1.00  0.00    +0.000 C 
ATOM      7  C   UNL     1      -1.864  -1.261  -0.384  1.00  0.00    +0.000 C 
ENDBRANCH   3   7
ENDBRANCH   1   3
BRANCH   1   8
ATOM      8  C   UNL     1       0.523   0.296   0.639  1.00  0.00    +0.000 C 
ATOM      9  C   UNL     1       1.555   0.810  -0.054  1.00  0.00    +0.000 C 
BRANCH   9  10
ATOM     10  C   UNL     1       2.915   0.276  -0.104  1.00  0.00    +0.000 C 
ATOM     11  C   UNL     1       3.226  -0.960   0.704  1.00  0.00    +0.000 C 
ATOM     12  C   UNL     1       3.900   0.834  -0.833  1.00  0.00    +0.000 C 
ATOM     13 BR   UNL     1       3.829   2.339  -1.918  1.00  0.00    +0.000 Br
ENDBRANCH   9  10
ENDBRANCH   1   8
TORSDOF 4
