REMARK  Name = 
REMARK  1 active torsions:
REMARK  status: ('A' for Active; 'I' for Inactive)
REMARK    1  A    between atoms: C_8  and  O_9
REMARK                            x       y       z     vdW  Elec       q    Type
REMARK                         _______ _______ _______ _____ _____    ______ ____
ROOT
ATOM      1  O   UNL     1      -0.699  -2.435  -1.690  1.00  0.00    +0.000 OA
ATOM      2  C   UNL     1      -1.002  -2.189  -0.524  1.00  0.00    +0.000 C 
ATOM      3  C   UNL     1      -0.086  -2.550   0.631  1.00  0.00    +0.000 C 
ATOM      4  C   UNL     1       1.398  -2.602   0.222  1.00  0.00    +0.000 C 
ATOM      5  C   UNL     1       2.042  -1.296  -0.200  1.00  0.00    +0.000 A 
ATOM      6  C   UNL     1       3.106  -1.308  -1.115  1.00  0.00    +0.000 A 
ATOM      7  C   UNL     1       3.704  -0.116  -1.546  1.00  0.00    +0.000 A 
ATOM      8  C   UNL     1       3.225   1.110  -1.087  1.00  0.00    +0.000 A 
ATOM      9  C   UNL     1       2.168   1.146  -0.182  1.00  0.00    +0.000 A 
ATOM     10  C   UNL     1       1.628  -0.059   0.305  1.00  0.00    +0.000 A 
ATOM     11  O   UNL     1       1.640   2.378   0.188  1.00  0.00    +0.000 OA
ATOM     12  C   UNL     1       0.259   2.398   0.235  1.00  0.00    +0.000 A 
ATOM     13  C   UNL     1      -0.488   2.088  -0.905  1.00  0.00    +0.000 A 
ATOM     14  C   UNL     1      -1.832   1.762  -0.766  1.00  0.00    +0.000 A 
ATOM     15  C   UNL     1      -2.426   1.777   0.502  1.00  0.00    +0.000 A 
ATOM     16  C   UNL     1      -3.708   1.095   0.681  1.00  0.00    +0.000 C 
ATOM     17  C   UNL     1      -3.764  -0.236   0.878  1.00  0.00    +0.000 C 
ATOM     18  C   UNL     1      -2.581  -1.156   1.048  1.00  0.00    +0.000 C 
ATOM     19  O   UNL     1      -2.231  -1.691  -0.237  1.00  0.00    +0.000 OA
ATOM     20  C   UNL     1      -1.708   2.248   1.610  1.00  0.00    +0.000 A 
ATOM     21  C   UNL     1      -0.357   2.568   1.475  1.00  0.00    +0.000 A 
ENDROOT
BRANCH   8  22
ATOM     22  O   UNL     1       3.767   2.280  -1.539  1.00  0.00    +0.000 OA
ATOM     23  H   UNL     1       4.467   2.075  -2.178  1.00  0.00    +0.000 HD
ENDBRANCH   8  22
TORSDOF 1
