REMARK  Name = SANCDB_00821_minRM1.pdb
AUTHORGENERATED BY OPEN BABEL 2.3.2
REMARK  12 active torsions:
REMARK  status: ('A' for Active; 'I' for Inactive)
REMARK    1  A    between atoms: C_1  and  C_2
REMARK    2  A    between atoms: C_2  and  O_4
REMARK    3  A    between atoms: O_4  and  C_5
REMARK    4  A    between atoms: C_6  and  O_29
REMARK    5  A    between atoms: C_8  and  C_28
REMARK    6  A    between atoms: C_9  and  O_15
REMARK    7  A    between atoms: C_12  and  C_13
REMARK    8  A    between atoms: C_12  and  C_14
REMARK    9  A    between atoms: C_16  and  O_27
REMARK   10  A    between atoms: C_17  and  C_26
REMARK   11  A    between atoms: C_19  and  C_23
REMARK   12  A    between atoms: C_19  and  C_24
REMARK                            x       y       z     vdW  Elec       q    Type
REMARK                         _______ _______ _______ _____ _____    ______ ____
ROOT
ATOM      1  C   UNL     1       0.344   1.597   0.136  1.00  0.00    +0.000 C 
ATOM      2  C   UNL     1      -1.168   1.430  -0.147  1.00  0.00    +0.000 C 
ATOM      3  C   UNL     1      -1.727   0.042   0.276  1.00  0.00    +0.000 C 
ATOM      4  C   UNL     1      -0.881  -1.187  -0.278  1.00  0.00    +0.000 C 
ATOM      5  C   UNL     1      -1.418  -2.524   0.399  1.00  0.00    +0.000 C 
ATOM      6  C   UNL     1      -2.778  -2.401   1.087  1.00  0.00    +0.000 C 
ATOM      7  C   UNL     1      -3.747  -1.581   0.263  1.00  0.00    +0.000 C 
ATOM      8  C   UNL     1      -3.304  -0.101   0.152  1.00  0.00    +0.000 C 
ATOM      9  C   UNL     1      -3.953   0.676   1.332  1.00  0.00    +0.000 C 
ATOM     10  C   UNL     1      -3.927   0.476  -1.135  1.00  0.00    +0.000 C 
ATOM     11  C   UNL     1       0.645  -0.910   0.077  1.00  0.00    +0.000 C 
ATOM     12  C   UNL     1       1.224   0.446  -0.444  1.00  0.00    +0.000 C 
ATOM     13  O   UNL     1       2.553   0.691   0.106  1.00  0.00    +0.000 OA
ATOM     14  C   UNL     1       3.474  -0.400   0.237  1.00  0.00    +0.000 C 
ATOM     15  C   UNL     1       3.075  -1.651  -0.547  1.00  0.00    +0.000 C 
ATOM     16  C   UNL     1       1.630  -2.025  -0.325  1.00  0.00    +0.000 C 
ATOM     17  O   UNL     1       1.277  -3.200  -0.475  1.00  0.00    +0.000 OA
ATOM     18  C   UNL     1       4.803   0.123  -0.340  1.00  0.00    +0.000 C 
ATOM     19  C   UNL     1       1.406   0.586  -1.973  1.00  0.00    +0.000 C 
ATOM     20  C   UNL     1      -1.081  -1.382  -1.801  1.00  0.00    +0.000 C 
ENDROOT
BRANCH   5  21
ATOM     21  O   UNL     1      -0.530  -3.049   1.391  1.00  0.00    +0.000 OA
ATOM     22  H   UNL     1       0.092  -3.634   0.901  1.00  0.00    +0.000 HD
ENDBRANCH   5  21
BRANCH  14  23
ATOM     23  C   UNL     1       3.698  -0.594   1.726  1.00  0.00    +0.000 C 
ATOM     24  C   UNL     1       3.738  -1.736   2.426  1.00  0.00    +0.000 C 
ENDBRANCH  14  23
BRANCH  11  25
ATOM     25  O   UNL     1       0.721  -0.851   1.525  1.00  0.00    +0.000 OA
ATOM     26  H   UNL     1       0.342  -1.692   1.868  1.00  0.00    +0.000 HD
ENDBRANCH  11  25
BRANCH   2  27
ATOM     27  O   UNL     1      -1.430   1.691  -1.524  1.00  0.00    +0.000 OA
ATOM     28  H   UNL     1      -1.087   2.585  -1.708  1.00  0.00    +0.000 HD
ENDBRANCH   2  27
BRANCH   1  29
ATOM     29  O   UNL     1       0.797   2.865  -0.420  1.00  0.00    +0.000 OA
BRANCH  29  31
ATOM     30  C   UNL     1       1.228   5.162  -0.285  1.00  0.00    +0.000 C 
ATOM     31  C   UNL     1       0.598   3.964   0.356  1.00  0.00    +0.000 C 
ATOM     32  O   UNL     1      -0.026   3.989   1.406  1.00  0.00    +0.000 OA
ENDBRANCH  29  31
ENDBRANCH   1  29
TORSDOF 6
