REMARK  Name = SANCDB_00953_minRM1.pdb
AUTHORGENERATED BY OPEN BABEL 2.3.2
REMARK  6 active torsions:
REMARK  status: ('A' for Active; 'I' for Inactive)
REMARK    1  A    between atoms: C_1  and  O_2
REMARK    2  A    between atoms: O_2  and  C_3
REMARK    3  A    between atoms: C_4  and  O_14
REMARK    4  A    between atoms: C_7  and  C_9
REMARK    5  A    between atoms: C_10  and  C_11
REMARK    6  A    between atoms: C_11  and  O_13
REMARK                            x       y       z     vdW  Elec       q    Type
REMARK                         _______ _______ _______ _____ _____    ______ ____
ROOT
ATOM      1  C   UNL     1      -1.840   0.093   0.285  1.00  0.00    +0.000 A 
ATOM      2  C   UNL     1      -2.092  -0.532   1.511  1.00  0.00    +0.000 A 
ATOM      3  C   UNL     1      -1.061  -0.990   2.320  1.00  0.00    +0.000 A 
ATOM      4  C   UNL     1       0.258  -0.827   1.898  1.00  0.00    +0.000 A 
ATOM      5  C   UNL     1       0.543  -0.219   0.667  1.00  0.00    +0.000 A 
ATOM      6  C   UNL     1      -0.516   0.252  -0.131  1.00  0.00    +0.000 A 
ENDROOT
BRANCH   1   8
ATOM      7  C   UNL     1      -2.746   1.148  -1.645  1.00  0.00    +0.000 C 
ATOM      8  O   UNL     1      -2.959   0.500  -0.396  1.00  0.00    +0.000 OA
ENDBRANCH   1   8
BRANCH   5   9
ATOM      9  C   UNL     1       1.950  -0.048   0.278  1.00  0.00    +0.000 C 
ATOM     10  C   UNL     1       2.400  -0.186  -0.978  1.00  0.00    +0.000 C 
BRANCH  10  11
ATOM     11  C   UNL     1       3.829  -0.010  -1.261  1.00  0.00    +0.000 C 
ATOM     12  O   UNL     1       4.716   0.252  -0.472  1.00  0.00    +0.000 OA
BRANCH  11  13
ATOM     13  O   UNL     1       4.062  -0.177  -2.572  1.00  0.00    +0.000 OA
ATOM     14  H   UNL     1       5.030  -0.044  -2.656  1.00  0.00    +0.000 HD
ENDBRANCH  11  13
ENDBRANCH  10  11
ENDBRANCH   5   9
BRANCH   2  15
ATOM     15  O   UNL     1      -3.378  -0.703   1.946  1.00  0.00    +0.000 OA
ATOM     16  H   UNL     1      -3.935  -0.313   1.244  1.00  0.00    +0.000 HD
ENDBRANCH   2  15
TORSDOF 5
