REMARK  Name = SANCDB_00878_minRM1.pdb
AUTHORGENERATED BY OPEN BABEL 2.3.2
REMARK  4 active torsions:
REMARK  status: ('A' for Active; 'I' for Inactive)
REMARK    1  A    between atoms: C_1  and  C_2
REMARK    2  A    between atoms: C_8  and  C_16
REMARK    3  A    between atoms: C_13  and  C_14
REMARK    4  A    between atoms: C_13  and  C_15
REMARK                            x       y       z     vdW  Elec       q    Type
REMARK                         _______ _______ _______ _____ _____    ______ ____
ROOT
ATOM      1  C   UNL     1      -2.132   1.223  -1.557  1.00  0.00    +0.000 C 
ATOM      2  C   UNL     1      -1.058   1.261  -0.459  1.00  0.00    +0.000 C 
ATOM      3  C   UNL     1      -1.727   1.326   0.934  1.00  0.00    +0.000 C 
ATOM      4  C   UNL     1      -1.832  -0.021   1.659  1.00  0.00    +0.000 C 
ATOM      5  C   UNL     1      -0.607  -0.933   1.435  1.00  0.00    +0.000 C 
ATOM      6  C   UNL     1       0.684  -0.167   1.834  1.00  0.00    +0.000 C 
ATOM      7  C   UNL     1       1.089   0.430   0.520  1.00  0.00    +0.000 C 
ATOM      8  C   UNL     1       2.263   0.917   0.111  1.00  0.00    +0.000 C 
ATOM      9  C   UNL     1       2.159   0.934  -1.361  1.00  0.00    +0.000 C 
ATOM     10  O   UNL     1       3.037   1.373  -2.090  1.00  0.00    +0.000 OA
ATOM     11  C   UNL     1       0.882   0.288  -1.848  1.00  0.00    +0.000 C 
ATOM     12  C   UNL     1       0.053   0.155  -0.564  1.00  0.00    +0.000 C 
ATOM     13  C   UNL     1      -0.393  -1.260  -0.082  1.00  0.00    +0.000 C 
ATOM     14  C   UNL     1      -1.631  -1.837  -0.784  1.00  0.00    +0.000 C 
ATOM     15  C   UNL     1       0.700  -2.361  -0.240  1.00  0.00    +0.000 C 
ATOM     16  C   UNL     1       3.512   1.222   0.837  1.00  0.00    +0.000 C 
ENDROOT
TORSDOF 0
