REMARK  Name = SANCDB_00742_minRM1.pdb
AUTHORGENERATED BY OPEN BABEL 2.3.2
REMARK  8 active torsions:
REMARK  status: ('A' for Active; 'I' for Inactive)
REMARK    1  A    between atoms: C_1  and  C_2
REMARK    2  A    between atoms: C_2  and  C_3
REMARK    3  A    between atoms: C_3  and  C_4
REMARK    4  A    between atoms: C_4  and  C_5
REMARK    5  A    between atoms: C_6  and  O_7
REMARK    6  A    between atoms: C_9  and  O_10
REMARK    7  A    between atoms: O_10  and  C_11
REMARK    8  A    between atoms: C_13  and  O_14
REMARK                            x       y       z     vdW  Elec       q    Type
REMARK                         _______ _______ _______ _____ _____    ______ ____
ROOT
ATOM      1  C   UNL     1       0.239   0.694   0.234  1.00  0.00    +0.000 A 
ATOM      2  C   UNL     1       0.605  -0.654   0.290  1.00  0.00    +0.000 A 
ATOM      3  C   UNL     1       1.936  -1.042   0.108  1.00  0.00    +0.000 A 
ATOM      4  C   UNL     1       2.927  -0.078  -0.088  1.00  0.00    +0.000 A 
ATOM      5  C   UNL     1       2.576   1.273  -0.086  1.00  0.00    +0.000 A 
ATOM      6  C   UNL     1       1.247   1.656   0.085  1.00  0.00    +0.000 A 
ENDROOT
BRANCH   1   7
ATOM      7  C   UNL     1      -1.167   1.157   0.297  1.00  0.00    +0.000 C 
ATOM      8  O   UNL     1      -1.408   2.185   0.931  1.00  0.00    +0.000 OA
BRANCH   7   9
ATOM      9  C   UNL     1      -2.233   0.428  -0.496  1.00  0.00    +0.000 C 
BRANCH   9  11
ATOM     10  C   UNL     1      -4.479  -0.703  -0.383  1.00  0.00    +0.000 C 
ATOM     11  C   UNL     1      -3.413   0.052   0.394  1.00  0.00    +0.000 C 
ENDBRANCH   9  11
ENDBRANCH   7   9
ENDBRANCH   1   7
BRANCH   2  12
ATOM     12  O   UNL     1      -0.274  -1.667   0.558  1.00  0.00    +0.000 OA
ATOM     13  H   UNL     1      -0.917  -1.357   1.220  1.00  0.00    +0.000 HD
ENDBRANCH   2  12
BRANCH   4  14
ATOM     14  O   UNL     1       4.260  -0.323  -0.272  1.00  0.00    +0.000 OA
ATOM     15  C   UNL     1       4.666  -1.685  -0.318  1.00  0.00    +0.000 C 
ENDBRANCH   4  14
BRANCH   6  16
ATOM     16  O   UNL     1       0.994   3.003   0.094  1.00  0.00    +0.000 OA
ATOM     17  H   UNL     1       0.095   3.144   0.467  1.00  0.00    +0.000 HD
ENDBRANCH   6  16
TORSDOF 6
