REMARK  Name = SANCDB_01102_minRM1.pdb
AUTHORGENERATED BY OPEN BABEL 2.3.2
REMARK  0 active torsions:
REMARK  status: ('A' for Active; 'I' for Inactive)
REMARK                            x       y       z     vdW  Elec       q    Type
REMARK                         _______ _______ _______ _____ _____    ______ ____
ROOT
ATOM      1  C   UNL     1       3.092  -1.468  -0.143  1.00  0.00    +0.000 C 
ATOM      2  C   UNL     1       3.635  -0.047  -0.312  1.00  0.00    +0.000 C 
ATOM      3  N   UNL     1       2.903   0.896   0.535  1.00  0.00    +0.000 NA
ATOM      4  C   UNL     1       1.503   1.000   0.078  1.00  0.00    +0.000 C 
ATOM      5  C   UNL     1       0.712   1.886   1.057  1.00  0.00    +0.000 C 
ATOM      6  C   UNL     1      -0.731   2.006   0.619  1.00  0.00    +0.000 A 
ATOM      7  C   UNL     1      -1.423   3.211   0.822  1.00  0.00    +0.000 A 
ATOM      8  C   UNL     1      -2.747   3.335   0.414  1.00  0.00    +0.000 A 
ATOM      9  C   UNL     1      -3.382   2.259  -0.195  1.00  0.00    +0.000 A 
ATOM     10  C   UNL     1      -2.701   1.051  -0.381  1.00  0.00    +0.000 A 
ATOM     11  C   UNL     1      -1.371   0.886   0.038  1.00  0.00    +0.000 A 
ATOM     12  C   UNL     1      -0.611  -0.382  -0.119  1.00  0.00    +0.000 A 
ATOM     13  C   UNL     1       0.812  -0.350  -0.078  1.00  0.00    +0.000 A 
ATOM     14  C   UNL     1       1.588  -1.531  -0.234  1.00  0.00    +0.000 A 
ATOM     15  C   UNL     1       0.956  -2.767  -0.396  1.00  0.00    +0.000 A 
ATOM     16  C   UNL     1      -0.420  -2.787  -0.411  1.00  0.00    +0.000 A 
ATOM     17  C   UNL     1      -1.183  -1.643  -0.276  1.00  0.00    +0.000 A 
ATOM     18  O   UNL     1      -2.516  -1.942  -0.295  1.00  0.00    +0.000 OA
ATOM     19  C   UNL     1      -2.497  -3.371  -0.452  1.00  0.00    +0.000 C 
ATOM     20  O   UNL     1      -1.170  -3.917  -0.541  1.00  0.00    +0.000 OA
ATOM     21  H   UNL     1       3.336   1.816   0.469  1.00  0.00    +0.000 HD
ENDROOT
TORSDOF 0
