REMARK  Name = SANCDB_00740_minRM1.pdb
AUTHORGENERATED BY OPEN BABEL 2.3.2
REMARK  6 active torsions:
REMARK  status: ('A' for Active; 'I' for Inactive)
REMARK    1  A    between atoms: C_1  and  C_2
REMARK    2  A    between atoms: C_4  and  O_5
REMARK    3  A    between atoms: C_9  and  C_10
REMARK    4  A    between atoms: C_10  and  C_11
REMARK    5  A    between atoms: C_10  and  C_12
REMARK    6  A    between atoms: C_15  and  C_16
REMARK                            x       y       z     vdW  Elec       q    Type
REMARK                         _______ _______ _______ _____ _____    ______ ____
ROOT
ATOM      1  C   UNL     1      -2.733   3.030  -0.711  1.00  0.00    +0.000 C 
ATOM      2  C   UNL     1      -2.143   1.699  -0.355  1.00  0.00    +0.000 A 
ATOM      3  C   UNL     1      -2.947   0.661   0.102  1.00  0.00    +0.000 A 
ATOM      4  C   UNL     1      -2.393  -0.598   0.353  1.00  0.00    +0.000 A 
ATOM      5  C   UNL     1      -1.027  -0.864   0.147  1.00  0.00    +0.000 A 
ATOM      6  C   UNL     1      -0.183   0.225  -0.189  1.00  0.00    +0.000 A 
ATOM      7  C   UNL     1      -0.775   1.464  -0.513  1.00  0.00    +0.000 A 
ATOM      8  C   UNL     1       1.344   0.106  -0.279  1.00  0.00    +0.000 C 
ATOM      9  C   UNL     1       1.832  -1.361  -0.274  1.00  0.00    +0.000 C 
ATOM     10  C   UNL     1       0.777  -2.360  -0.702  1.00  0.00    +0.000 C 
ATOM     11  C   UNL     1      -0.432  -2.266   0.245  1.00  0.00    +0.000 C 
ATOM     12  C   UNL     1      -1.362  -3.439  -0.104  1.00  0.00    +0.000 C 
ENDROOT
BRANCH   8  13
ATOM     13  C   UNL     1       2.137   0.894   0.832  1.00  0.00    +0.000 C 
ATOM     14  C   UNL     1       3.659   0.771   0.632  1.00  0.00    +0.000 C 
ATOM     15  C   UNL     1       1.815   2.390   0.936  1.00  0.00    +0.000 C 
ENDBRANCH   8  13
BRANCH   4  16
ATOM     16  O   UNL     1      -3.222  -1.581   0.818  1.00  0.00    +0.000 OA
ATOM     17  H   UNL     1      -4.115  -1.219   0.927  1.00  0.00    +0.000 HD
ENDBRANCH   4  16
TORSDOF 2
