REMARK  Name = /srv/my_project/app/compsite/backup/Dave/CORINA_stuff/newPDBs/SANC00162.pdb
AUTHORGENERATED BY OPEN BABEL 2.3.2
REMARK  16 active torsions:
REMARK  status: ('A' for Active; 'I' for Inactive)
REMARK    1  A    between atoms: C_1  and  C_2
REMARK    2  A    between atoms: C_2  and  C_3
REMARK    3  A    between atoms: C_3  and  C_4
REMARK    4  A    between atoms: C_4  and  C_6
REMARK    5  A    between atoms: C_4  and  C_7
REMARK    6  A    between atoms: C_7  and  C_8
REMARK    7  A    between atoms: C_8  and  C_10
REMARK    8  A    between atoms: C_8  and  C_11
REMARK    9  A    between atoms: C_11  and  C_12
REMARK   10  A    between atoms: C_12  and  C_14
REMARK   11  A    between atoms: C_12  and  C_15
REMARK   12  A    between atoms: C_16  and  C_17
REMARK   13  A    between atoms: C_16  and  C_18
REMARK   14  A    between atoms: C_19  and  C_20
REMARK   15  A    between atoms: C_23  and  C_24
REMARK   16  A    between atoms: C_23  and  O_25
REMARK                            x       y       z     vdW  Elec       q    Type
REMARK                         _______ _______ _______ _____ _____    ______ ____
ROOT
ATOM      1  C   UNL     1       1.853   0.231   0.603  1.00  0.00    +0.000 C 
ATOM      2  C   UNL     1       2.878   0.872   0.004  1.00  0.00    +0.000 C 
ATOM      3  C   UNL     1       2.755   2.072  -0.895  1.00  0.00    +0.000 C 
ENDROOT
BRANCH   2   4
ATOM      4  C   UNL     1       4.245   0.420   0.202  1.00  0.00    +0.000 C 
ATOM      5  C   UNL     1       4.736  -0.797  -0.042  1.00  0.00    +0.000 C 
ATOM      6  C   UNL     1       4.166  -2.045  -0.589  1.00  0.00    +0.000 C 
ATOM      7  C   UNL     1       6.142  -0.641   0.319  1.00  0.00    +0.000 C 
ATOM      8  O   UNL     1       6.987  -1.505   0.131  1.00  0.00    +0.000 OA
ATOM      9  C   UNL     1       6.380   0.753   0.883  1.00  0.00    +0.000 C 
ATOM     10  C   UNL     1       6.662   0.687   2.377  1.00  0.00    +0.000 C 
ATOM     11  O   UNL     1       5.115   1.401   0.673  1.00  0.00    +0.000 OA
BRANCH   9  12
ATOM     12  O   UNL     1       7.424   1.472   0.256  1.00  0.00    +0.000 OA
ATOM     13  H   UNL     1       7.514   1.107  -0.640  1.00  0.00    +0.000 HD
ENDBRANCH   9  12
ENDBRANCH   2   4
BRANCH   1  14
ATOM     14  C   UNL     1       0.366   0.534   0.591  1.00  0.00    +0.000 C 
ATOM     15  C   UNL     1       0.032   1.996   0.902  1.00  0.00    +0.000 C 
BRANCH  14  16
ATOM     16  C   UNL     1      -0.288   0.008  -0.704  1.00  0.00    +0.000 C 
BRANCH  16  17
ATOM     17  C   UNL     1      -1.823   0.196  -0.827  1.00  0.00    +0.000 C 
ATOM     18  C   UNL     1      -2.248  -0.251  -2.230  1.00  0.00    +0.000 C 
BRANCH  17  19
ATOM     19  C   UNL     1      -2.574  -0.556   0.296  1.00  0.00    +0.000 C 
BRANCH  19  20
ATOM     20  C   UNL     1      -4.119  -0.446   0.368  1.00  0.00    +0.000 C 
ATOM     21  C   UNL     1      -4.583   1.010   0.266  1.00  0.00    +0.000 C 
BRANCH  20  22
ATOM     22  C   UNL     1      -4.837  -1.357  -0.651  1.00  0.00    +0.000 C 
BRANCH  22  24
ATOM     23  C   UNL     1      -7.192  -1.238   0.368  1.00  0.00    +0.000 C 
ATOM     24  C   UNL     1      -6.040  -2.121  -0.082  1.00  0.00    +0.000 C 
ENDBRANCH  22  24
ENDBRANCH  20  22
ENDBRANCH  19  20
ENDBRANCH  17  19
ENDBRANCH  16  17
ENDBRANCH  14  16
ENDBRANCH   1  14
TORSDOF 9
