REMARK  Name = SANCDB00213.pdb
REMARK  21 active torsions:
REMARK  status: ('A' for Active; 'I' for Inactive)
REMARK    1  A    between atoms: C_9  and  O_10
REMARK    2  A    between atoms: C_12  and  O_13
REMARK    3  A    between atoms: C_14  and  C_15
REMARK    4  A    between atoms: C_16  and  O_17
REMARK    5  A    between atoms: C_20  and  C_21
REMARK    6  A    between atoms: C_21  and  C_22
REMARK    7  A    between atoms: C_22  and  C_24
REMARK    8  A    between atoms: C_24  and  C_25
REMARK    9  A    between atoms: C_25  and  O_26
REMARK   10  A    between atoms: C_25  and  C_27
REMARK   11  A    between atoms: C_28  and  C_29
REMARK   12  A    between atoms: C_32  and  O_33
REMARK   13  A    between atoms: C_41  and  O_42
REMARK   14  A    between atoms: C_46  and  C_47
REMARK   15  A    between atoms: C_46  and  O_48
REMARK   16  A    between atoms: C_56  and  C_57
REMARK   17  A    between atoms: C_63  and  O_64
REMARK   18  A    between atoms: O_64  and  C_65
REMARK   19  A    between atoms: C_69  and  O_70
REMARK   20  A    between atoms: C_74  and  C_75
REMARK   21  A    between atoms: C_78  and  C_79
REMARK                            x       y       z     vdW  Elec       q    Type
REMARK                         _______ _______ _______ _____ _____    ______ ____
ROOT
ATOM      1  C   UNL     1      -4.186   4.049   1.233  1.00  0.00    +0.000 C 
ATOM      2  C   UNL     1      -3.711   5.433   1.601  1.00  0.00    +0.000 C 
ATOM      3  C   UNL     1      -2.439   5.830   1.774  1.00  0.00    +0.000 C 
ATOM      4  C   UNL     1      -1.222   4.953   1.757  1.00  0.00    +0.000 C 
ATOM      5  C   UNL     1      -0.597   4.833   0.366  1.00  0.00    +0.000 C 
ATOM      6  C   UNL     1       0.715   4.052   0.446  1.00  0.00    +0.000 C 
ATOM      7  C   UNL     1       1.322   3.681  -0.916  1.00  0.00    +0.000 C 
ATOM      8  O   UNL     1       2.604   3.111  -0.614  1.00  0.00    +0.000 OA
ATOM      9  C   UNL     1       3.396   2.780  -1.749  1.00  0.00    +0.000 C 
ATOM     10  C   UNL     1       2.673   1.758  -2.635  1.00  0.00    +0.000 C 
ATOM     11  C   UNL     1       1.273   2.256  -3.002  1.00  0.00    +0.000 C 
ATOM     12  C   UNL     1       0.473   2.708  -1.767  1.00  0.00    +0.000 C 
ATOM     13  C   UNL     1      -0.007   1.484  -0.976  1.00  0.00    +0.000 C 
ATOM     14  C   UNL     1       4.796   2.259  -1.270  1.00  0.00    +0.000 C 
ATOM     15  C   UNL     1       4.878   1.743   0.195  1.00  0.00    +0.000 C 
ATOM     16  O   UNL     1       6.255   1.506   0.553  1.00  0.00    +0.000 OA
ATOM     17  C   UNL     1       6.889   0.311   0.065  1.00  0.00    +0.000 C 
ATOM     18  C   UNL     1       5.908  -0.797  -0.353  1.00  0.00    +0.000 C 
ATOM     19  C   UNL     1       4.717  -0.787   0.612  1.00  0.00    +0.000 C 
ATOM     20  O   UNL     1       3.809  -1.833   0.184  1.00  0.00    +0.000 OA
ATOM     21  C   UNL     1       3.278  -2.623   1.153  1.00  0.00    +0.000 C 
ATOM     22  O   UNL     1       3.386  -2.452   2.358  1.00  0.00    +0.000 OA
ATOM     23  C   UNL     1       2.503  -3.748   0.530  1.00  0.00    +0.000 C 
ATOM     24  C   UNL     1       1.051  -3.361   0.249  1.00  0.00    +0.000 C 
ATOM     25  C   UNL     1       0.854  -2.333  -0.859  1.00  0.00    +0.000 C 
ATOM     26  C   UNL     1       1.273  -2.882  -2.218  1.00  0.00    +0.000 C 
ATOM     27  C   UNL     1       1.061  -4.391  -2.344  1.00  0.00    +0.000 C 
ATOM     28  C   UNL     1      -0.010  -4.887  -1.363  1.00  0.00    +0.000 C 
ATOM     29  C   UNL     1      -0.113  -6.419  -1.448  1.00  0.00    +0.000 C 
ATOM     30  C   UNL     1      -1.288  -6.946  -0.614  1.00  0.00    +0.000 C 
ATOM     31  C   UNL     1      -1.462  -8.451  -0.829  1.00  0.00    +0.000 C 
ATOM     32  C   UNL     1      -2.568  -6.204  -0.997  1.00  0.00    +0.000 C 
ATOM     33  C   UNL     1      -2.370  -4.685  -0.979  1.00  0.00    +0.000 C 
ATOM     34  C   UNL     1      -3.567  -4.028  -1.611  1.00  0.00    +0.000 C 
ATOM     35  C   UNL     1      -4.481  -3.240  -1.021  1.00  0.00    +0.000 C 
ATOM     36  C   UNL     1      -5.718  -2.750  -1.709  1.00  0.00    +0.000 C 
ATOM     37  O   UNL     1      -6.675  -2.485  -0.670  1.00  0.00    +0.000 OA
ATOM     38  C   UNL     1      -6.098  -2.880   0.584  1.00  0.00    +0.000 C 
ATOM     39  C   UNL     1      -6.731  -2.133   1.765  1.00  0.00    +0.000 C 
ATOM     40  C   UNL     1      -8.163  -2.617   2.020  1.00  0.00    +0.000 C 
ATOM     41  C   UNL     1      -6.756  -0.606   1.661  1.00  0.00    +0.000 C 
ATOM     42  O   UNL     1      -6.303   0.073   2.590  1.00  0.00    +0.000 OA
ATOM     43  C   UNL     1      -7.388   0.045   0.436  1.00  0.00    +0.000 C 
ATOM     44  C   UNL     1      -7.686   1.528   0.663  1.00  0.00    +0.000 C 
ATOM     45  C   UNL     1      -8.698   2.031  -0.361  1.00  0.00    +0.000 C 
ATOM     46  C   UNL     1      -8.907   3.536  -0.212  1.00  0.00    +0.000 C 
ATOM     47  C   UNL     1      -7.555   4.241  -0.285  1.00  0.00    +0.000 C 
ATOM     48  C   UNL     1      -6.537   3.654   0.706  1.00  0.00    +0.000 C 
ATOM     49  C   UNL     1      -6.868   4.048   2.155  1.00  0.00    +0.000 C 
ATOM     50  C   UNL     1      -5.789   3.584   3.133  1.00  0.00    +0.000 C 
ATOM     51  C   UNL     1      -4.490   3.181   2.452  1.00  0.00    +0.000 C 
ATOM     52  O   UNL     1      -5.284   4.242   0.337  1.00  0.00    +0.000 OA
ATOM     53  O   UNL     1      -6.455   2.242   0.516  1.00  0.00    +0.000 OA
ATOM     54  C   UNL     1      -4.572  -2.826   0.418  1.00  0.00    +0.000 C 
ATOM     55  C   UNL     1      -3.912  -1.467   0.625  1.00  0.00    +0.000 C 
ATOM     56  O   UNL     1      -1.248  -4.296  -1.772  1.00  0.00    +0.000 OA
ATOM     57  O   UNL     1       0.305  -4.561  -0.001  1.00  0.00    +0.000 OA
ATOM     58  C   UNL     1       3.972   0.556   0.571  1.00  0.00    +0.000 C 
ATOM     59  C   UNL     1       3.304   0.817   1.932  1.00  0.00    +0.000 C 
ENDROOT
BRANCH   9  60
ATOM     60  O   UNL     1       3.610   3.954  -2.549  1.00  0.00    +0.000 OA
ATOM     61  H   UNL     1       4.484   4.286  -2.245  1.00  0.00    +0.000 HD
ENDBRANCH   9  60
BRANCH  11  62
ATOM     62  O   UNL     1       1.362   3.338  -3.933  1.00  0.00    +0.000 OA
ATOM     63  H   UNL     1       2.117   3.903  -3.657  1.00  0.00    +0.000 HD
ENDBRANCH  11  62
BRANCH  14  64
ATOM     64  O   UNL     1       5.733   3.378  -1.363  1.00  0.00    +0.000 OA
ATOM     65  H   UNL     1       6.416   3.217  -0.681  1.00  0.00    +0.000 HD
ENDBRANCH  14  64
BRANCH  18  66
ATOM     66  O   UNL     1       6.529  -2.087  -0.300  1.00  0.00    +0.000 OA
ATOM     67  H   UNL     1       7.138  -2.160  -1.056  1.00  0.00    +0.000 HD
ENDBRANCH  18  66
BRANCH  26  68
ATOM     68  O   UNL     1       0.548  -2.191  -3.234  1.00  0.00    +0.000 OA
ATOM     69  H   UNL     1      -0.391  -2.446  -3.140  1.00  0.00    +0.000 HD
ENDBRANCH  26  68
BRANCH  30  70
ATOM     70  O   UNL     1      -1.041  -6.771   0.784  1.00  0.00    +0.000 OA
ATOM     71  H   UNL     1      -0.556  -5.929   0.906  1.00  0.00    +0.000 HD
ENDBRANCH  30  70
BRANCH  46  72
ATOM     72  O   UNL     1      -9.781   3.947  -1.268  1.00  0.00    +0.000 OA
ATOM     73  C   UNL     1     -10.317   5.252  -1.092  1.00  0.00    +0.000 C 
ENDBRANCH  46  72
BRANCH  50  74
ATOM     74  O   UNL     1      -6.283   2.515   3.940  1.00  0.00    +0.000 OA
ATOM     75  H   UNL     1      -6.230   1.679   3.424  1.00  0.00    +0.000 HD
ENDBRANCH  50  74
BRANCH  17  76
ATOM     76  C   UNL     1       7.909   0.705  -1.028  1.00  0.00    +0.000 C 
BRANCH  76  77
ATOM     77  C   UNL     1       8.871  -0.372  -1.488  1.00  0.00    +0.000 C 
ATOM     78  C   UNL     1       8.866  -0.804  -2.761  1.00  0.00    +0.000 C 
BRANCH  77  79
ATOM     79  C   UNL     1       9.847  -0.949  -0.471  1.00  0.00    +0.000 C 
BRANCH  79  80
ATOM     80  C   UNL     1      10.912   0.052   0.019  1.00  0.00    +0.000 C 
BRANCH  80  81
ATOM     81  O   UNL     1      11.803   0.385  -1.041  1.00  0.00    +0.000 OA
ATOM     82  H   UNL     1      11.261   0.720  -1.776  1.00  0.00    +0.000 HD
ENDBRANCH  80  81
BRANCH  80  83
ATOM     83  C   UNL     1      11.755  -0.552   1.103  1.00  0.00    +0.000 C 
ATOM     84  C   UNL     1      11.780  -0.114   2.374  1.00  0.00    +0.000 C 
BRANCH  84  85
ATOM     85  C   UNL     1      12.569  -0.655   3.466  1.00  0.00    +0.000 C 
ATOM     86  C   UNL     1      12.538  -0.118   4.693  1.00  0.00    +0.000 C 
ATOM     87 CL   UNL     1      13.574  -2.044   3.208  1.00  0.00    +0.000 Cl
ENDBRANCH  84  85
ENDBRANCH  80  83
ENDBRANCH  79  80
ENDBRANCH  77  79
ENDBRANCH  76  77
ENDBRANCH  17  76
TORSDOF 15
