REMARK  Name = /srv/my_project/app/compsite/backup/Dave/CORINA_stuff/newPDBs/SANC00701.pdb
AUTHORGENERATED BY OPEN BABEL 2.3.2
REMARK  5 active torsions:
REMARK  status: ('A' for Active; 'I' for Inactive)
REMARK    1  A    between atoms: C_1  and  C_2
REMARK    2  A    between atoms: C_6  and  C_7
REMARK    3  A    between atoms: C_15  and  C_17
REMARK    4  A    between atoms: C_17  and  C_18
REMARK    5  A    between atoms: C_17  and  C_19
REMARK                            x       y       z     vdW  Elec       q    Type
REMARK                         _______ _______ _______ _____ _____    ______ ____
ROOT
ATOM      1  C   UNL     1      -0.878  -3.761   1.739  1.00  0.00    +0.000 C 
ATOM      2  C   UNL     1      -0.116  -2.614   1.120  1.00  0.00    +0.000 C 
ATOM      3  C   UNL     1       0.804  -2.840   0.163  1.00  0.00    +0.000 C 
ATOM      4  C   UNL     1       1.715  -1.920  -0.604  1.00  0.00    +0.000 C 
ATOM      5  C   UNL     1       2.368  -0.802   0.160  1.00  0.00    +0.000 C 
ATOM      6  C   UNL     1       3.206   0.109  -0.380  1.00  0.00    +0.000 C 
ATOM      7  C   UNL     1       3.662   0.084  -1.817  1.00  0.00    +0.000 C 
ATOM      8  C   UNL     1       3.753   1.265   0.448  1.00  0.00    +0.000 C 
ATOM      9  C   UNL     1       2.810   2.482   0.615  1.00  0.00    +0.000 C 
ATOM     10  C   UNL     1       1.694   2.583  -0.354  1.00  0.00    +0.000 C 
ATOM     11  C   UNL     1       0.515   2.433   0.251  1.00  0.00    +0.000 C 
ATOM     12  C   UNL     1      -0.844   2.327  -0.347  1.00  0.00    +0.000 C 
ATOM     13  C   UNL     1      -1.083   0.995  -1.092  1.00  0.00    +0.000 C 
ATOM     14  C   UNL     1      -1.670  -0.212  -0.303  1.00  0.00    +0.000 C 
ATOM     15  C   UNL     1      -1.141  -0.322   1.107  1.00  0.00    +0.000 C 
ATOM     16  C   UNL     1      -0.473  -1.331   1.687  1.00  0.00    +0.000 C 
ATOM     17  C   UNL     1       0.797   2.396   1.691  1.00  0.00    +0.000 C 
ATOM     18  O   UNL     1      -0.035   2.397   2.580  1.00  0.00    +0.000 OA
ATOM     19  O   UNL     1       2.144   2.396   1.882  1.00  0.00    +0.000 OA
ENDROOT
BRANCH  14  20
ATOM     20  C   UNL     1      -3.230  -0.285  -0.296  1.00  0.00    +0.000 C 
ATOM     21  C   UNL     1      -3.928   0.967   0.238  1.00  0.00    +0.000 C 
ATOM     22  C   UNL     1      -3.789  -0.627  -1.684  1.00  0.00    +0.000 C 
ENDBRANCH  14  20
TORSDOF 1
