REMARK  Name = SANCDB_01126_minRM1.pdb
AUTHORGENERATED BY OPEN BABEL 2.3.2
REMARK  3 active torsions:
REMARK  status: ('A' for Active; 'I' for Inactive)
REMARK    1  A    between atoms: C_1  and  C_2
REMARK    2  A    between atoms: C_2  and  O_4
REMARK    3  A    between atoms: O_4  and  C_5
REMARK                            x       y       z     vdW  Elec       q    Type
REMARK                         _______ _______ _______ _____ _____    ______ ____
ROOT
ATOM      1  C   UNL     1       2.295  -0.626  -0.363  1.00  0.00    +0.000 C 
ATOM      2  C   UNL     1       1.269  -1.332   0.519  1.00  0.00    +0.000 C 
ATOM      3  C   UNL     1       0.044  -1.477  -0.392  1.00  0.00    +0.000 C 
ATOM      4  C   UNL     1      -0.038  -0.114  -1.122  1.00  0.00    +0.000 C 
ATOM      5  C   UNL     1       1.441   0.246  -1.256  1.00  0.00    +0.000 C 
ATOM      6  C   UNL     1       1.934   1.163  -2.103  1.00  0.00    +0.000 C 
ATOM      7  C   UNL     1      -0.863   0.989  -0.417  1.00  0.00    +0.000 C 
ATOM      8  C   UNL     1      -2.344   0.633  -0.285  1.00  0.00    +0.000 C 
ATOM      9  C   UNL     1      -2.719  -0.078   1.017  1.00  0.00    +0.000 C 
ATOM     10  C   UNL     1      -1.762  -1.183   1.459  1.00  0.00    +0.000 C 
ATOM     11  C   UNL     1      -1.195  -1.988   0.319  1.00  0.00    +0.000 C 
ATOM     12  C   UNL     1      -1.761  -3.156  -0.033  1.00  0.00    +0.000 C 
ATOM     13  C   UNL     1      -2.984   1.968  -0.469  1.00  0.00    +0.000 C 
ATOM     14  C   UNL     1      -4.193   2.402  -0.093  1.00  0.00    +0.000 C 
ATOM     15  C   UNL     1      -2.023   2.844  -1.169  1.00  0.00    +0.000 C 
ATOM     16  O   UNL     1      -2.246   3.949  -1.626  1.00  0.00    +0.000 OA
ATOM     17  O   UNL     1      -0.842   2.180  -1.236  1.00  0.00    +0.000 OA
ENDROOT
BRANCH   1  18
ATOM     18  O   UNL     1       3.171   0.193   0.411  1.00  0.00    +0.000 OA
BRANCH  18  20
ATOM     19  C   UNL     1       5.038   0.486   1.792  1.00  0.00    +0.000 C 
ATOM     20  C   UNL     1       4.179  -0.476   1.030  1.00  0.00    +0.000 C 
ATOM     21  O   UNL     1       4.366  -1.683   0.985  1.00  0.00    +0.000 OA
ENDBRANCH  18  20
ENDBRANCH   1  18
TORSDOF 2
