REMARK  Name = SANCDB_00846_minRM1.pdb
AUTHORGENERATED BY OPEN BABEL 2.3.2
REMARK  10 active torsions:
REMARK  status: ('A' for Active; 'I' for Inactive)
REMARK    1  A    between atoms: C_1  and  C_2
REMARK    2  A    between atoms: C_3  and  O_31
REMARK    3  A    between atoms: C_4  and  O_30
REMARK    4  A    between atoms: C_5  and  O_29
REMARK    5  A    between atoms: C_6  and  O_8
REMARK    6  A    between atoms: O_8  and  C_9
REMARK    7  A    between atoms: C_10  and  C_22
REMARK    8  A    between atoms: C_14  and  O_21
REMARK    9  A    between atoms: C_16  and  O_20
REMARK   10  A    between atoms: C_25  and  O_28
REMARK                            x       y       z     vdW  Elec       q    Type
REMARK                         _______ _______ _______ _____ _____    ______ ____
ROOT
ATOM      1  C   UNL     1       0.574  -0.355  -0.648  1.00  0.00    +0.000 A 
ATOM      2  C   UNL     1       1.685   0.407  -0.720  1.00  0.00    +0.000 A 
ATOM      3  O   UNL     1       2.978  -0.068  -0.573  1.00  0.00    +0.000 OA
ATOM      4  C   UNL     1       3.164  -1.407  -0.348  1.00  0.00    +0.000 A 
ATOM      5  C   UNL     1       4.477  -1.842  -0.168  1.00  0.00    +0.000 A 
ATOM      6  C   UNL     1       4.728  -3.193   0.057  1.00  0.00    +0.000 A 
ATOM      7  C   UNL     1       3.688  -4.117   0.101  1.00  0.00    +0.000 A 
ATOM      8  C   UNL     1       2.380  -3.676  -0.082  1.00  0.00    +0.000 A 
ATOM      9  C   UNL     1       2.114  -2.320  -0.304  1.00  0.00    +0.000 A 
ATOM     10  C   UNL     1       0.747  -1.824  -0.500  1.00  0.00    +0.000 A 
ATOM     11  O   UNL     1      -0.189  -2.619  -0.546  1.00  0.00    +0.000 OA
ENDROOT
BRANCH   2  12
ATOM     12  C   UNL     1       1.629   1.866  -0.932  1.00  0.00    +0.000 A 
ATOM     13  C   UNL     1       2.253   2.729  -0.019  1.00  0.00    +0.000 A 
ATOM     14  C   UNL     1       2.204   4.114  -0.200  1.00  0.00    +0.000 A 
ATOM     15  C   UNL     1       1.536   4.636  -1.303  1.00  0.00    +0.000 A 
ATOM     16  C   UNL     1       0.922   3.798  -2.225  1.00  0.00    +0.000 A 
ATOM     17  C   UNL     1       0.971   2.414  -2.043  1.00  0.00    +0.000 A 
BRANCH  15  18
ATOM     18  O   UNL     1       1.462   5.979  -1.519  1.00  0.00    +0.000 OA
ATOM     19  H   UNL     1       1.921   6.438  -0.796  1.00  0.00    +0.000 HD
ENDBRANCH  15  18
ENDBRANCH   2  12
BRANCH   8  20
ATOM     20  O   UNL     1       1.398  -4.630  -0.033  1.00  0.00    +0.000 OA
ATOM     21  H   UNL     1       0.535  -4.188  -0.201  1.00  0.00    +0.000 HD
ENDBRANCH   8  20
BRANCH   6  22
ATOM     22  O   UNL     1       6.025  -3.575   0.230  1.00  0.00    +0.000 OA
ATOM     23  H   UNL     1       6.053  -4.537   0.372  1.00  0.00    +0.000 HD
ENDBRANCH   6  22
BRANCH   1  24
ATOM     24  O   UNL     1      -0.711   0.145  -0.780  1.00  0.00    +0.000 OA
BRANCH  24  30
ATOM     25  C   UNL     1      -3.111  -2.375   1.688  1.00  0.00    +0.000 C 
ATOM     26  C   UNL     1      -2.806  -1.210   0.753  1.00  0.00    +0.000 C 
ATOM     27  C   UNL     1      -4.005  -0.261   0.609  1.00  0.00    +0.000 C 
ATOM     28  C   UNL     1      -3.604   0.916  -0.288  1.00  0.00    +0.000 C 
ATOM     29  C   UNL     1      -2.351   1.608   0.244  1.00  0.00    +0.000 C 
ATOM     30  C   UNL     1      -1.228   0.580   0.490  1.00  0.00    +0.000 C 
ATOM     31  O   UNL     1      -1.675  -0.520   1.296  1.00  0.00    +0.000 OA
BRANCH  29  32
ATOM     32  O   UNL     1      -2.690   2.304   1.458  1.00  0.00    +0.000 OA
ATOM     33  H   UNL     1      -3.528   2.767   1.249  1.00  0.00    +0.000 HD
ENDBRANCH  29  32
BRANCH  28  34
ATOM     34  O   UNL     1      -4.685   1.866  -0.332  1.00  0.00    +0.000 OA
ATOM     35  H   UNL     1      -5.474   1.330  -0.552  1.00  0.00    +0.000 HD
ENDBRANCH  28  34
BRANCH  27  36
ATOM     36  O   UNL     1      -5.144  -0.893   0.010  1.00  0.00    +0.000 OA
ATOM     37  H   UNL     1      -5.477  -1.552   0.645  1.00  0.00    +0.000 HD
ENDBRANCH  27  36
ENDBRANCH  24  30
ENDBRANCH   1  24
TORSDOF 9
