REMARK  Name = /srv/my_project/app/compsite/backup/Dave/CORINA_stuff/newPDBs/SANC00157.pdb
AUTHORGENERATED BY OPEN BABEL 2.3.2
REMARK  15 active torsions:
REMARK  status: ('A' for Active; 'I' for Inactive)
REMARK    1  A    between atoms: C_9  and  O_11
REMARK    2  A    between atoms: O_11  and  C_12
REMARK    3  A    between atoms: C_12  and  C_13
REMARK    4  A    between atoms: C_17  and  C_18
REMARK    5  A    between atoms: C_18  and  C_19
REMARK    6  A    between atoms: C_18  and  O_28
REMARK    7  A    between atoms: C_19  and  C_20
REMARK    8  A    between atoms: C_20  and  O_21
REMARK    9  A    between atoms: C_20  and  C_25
REMARK   10  A    between atoms: O_21  and  C_22
REMARK   11  A    between atoms: C_22  and  C_23
REMARK   12  A    between atoms: C_25  and  C_27
REMARK   13  A    between atoms: O_28  and  C_29
REMARK   14  A    between atoms: C_29  and  C_30
REMARK   15  A    between atoms: C_36  and  C_37
REMARK                            x       y       z     vdW  Elec       q    Type
REMARK                         _______ _______ _______ _____ _____    ______ ____
ROOT
ATOM      1  C   UNL     1      -2.950  -1.924   0.022  1.00  0.00    +0.000 C 
ATOM      2  C   UNL     1      -4.198  -1.271  -0.459  1.00  0.00    +0.000 C 
ATOM      3  C   UNL     1      -4.129   0.262  -0.363  1.00  0.00    +0.000 C 
ATOM      4  C   UNL     1      -2.778   0.865  -0.718  1.00  0.00    +0.000 C 
ATOM      5  C   UNL     1      -2.459   1.105  -2.002  1.00  0.00    +0.000 C 
ATOM      6  C   UNL     1      -1.840   1.217   0.455  1.00  0.00    +0.000 C 
ATOM      7  C   UNL     1      -1.545   2.746   0.521  1.00  0.00    +0.000 C 
ATOM      8  O   UNL     1      -0.378   3.042   1.311  1.00  0.00    +0.000 OA
ATOM      9  C   UNL     1       0.724   2.429   0.780  1.00  0.00    +0.000 C 
ATOM     10  C   UNL     1       0.716   1.173   0.311  1.00  0.00    +0.000 C 
ATOM     11  C   UNL     1      -0.542   0.332   0.480  1.00  0.00    +0.000 C 
ATOM     12  C   UNL     1      -0.460  -0.479   1.815  1.00  0.00    +0.000 C 
ATOM     13  C   UNL     1      -1.067  -1.892   1.756  1.00  0.00    +0.000 C 
ATOM     14  C   UNL     1      -2.544  -1.900   1.484  1.00  0.00    +0.000 C 
ATOM     15  C   UNL     1      -3.450  -1.467   2.601  1.00  0.00    +0.000 C 
ATOM     16  O   UNL     1      -3.056  -3.087   0.841  1.00  0.00    +0.000 OA
ENDROOT
BRANCH   7  17
ATOM     17  O   UNL     1      -2.672   3.395   1.148  1.00  0.00    +0.000 OA
BRANCH  17  18
ATOM     18  C   UNL     1      -3.494   4.100   0.332  1.00  0.00    +0.000 C 
ATOM     19  C   UNL     1      -4.606   4.703   1.137  1.00  0.00    +0.000 C 
ATOM     20  O   UNL     1      -3.376   4.235  -0.876  1.00  0.00    +0.000 OA
ENDBRANCH  17  18
ENDBRANCH   7  17
BRANCH  10  21
ATOM     21  C   UNL     1       1.932   0.602  -0.405  1.00  0.00    +0.000 C 
BRANCH  21  22
ATOM     22  C   UNL     1       2.597  -0.554   0.355  1.00  0.00    +0.000 C 
BRANCH  22  23
ATOM     23  C   UNL     1       3.996  -0.918  -0.183  1.00  0.00    +0.000 C 
BRANCH  23  24
ATOM     24  C   UNL     1       4.017  -1.502  -1.586  1.00  0.00    +0.000 C 
ATOM     25  C   UNL     1       4.676  -0.897  -2.590  1.00  0.00    +0.000 C 
ATOM     26  C   UNL     1       3.293  -2.803  -1.813  1.00  0.00    +0.000 C 
ENDBRANCH  23  24
BRANCH  23  27
ATOM     27  O   UNL     1       4.582  -1.919   0.678  1.00  0.00    +0.000 OA
BRANCH  27  28
ATOM     28  C   UNL     1       5.208  -1.458   1.793  1.00  0.00    +0.000 C 
ATOM     29  C   UNL     1       5.794  -2.603   2.561  1.00  0.00    +0.000 C 
ATOM     30  O   UNL     1       5.281  -0.286   2.135  1.00  0.00    +0.000 OA
ENDBRANCH  27  28
ENDBRANCH  23  27
ENDBRANCH  22  23
ENDBRANCH  21  22
BRANCH  21  31
ATOM     31  O   UNL     1       1.487   0.119  -1.687  1.00  0.00    +0.000 OA
BRANCH  31  32
ATOM     32  C   UNL     1       1.643   0.963  -2.741  1.00  0.00    +0.000 C 
ATOM     33  C   UNL     1       1.152   0.304  -3.994  1.00  0.00    +0.000 C 
ATOM     34  O   UNL     1       2.114   2.090  -2.694  1.00  0.00    +0.000 OA
ENDBRANCH  31  32
ENDBRANCH  21  31
ENDBRANCH  10  21
TORSDOF 10
