REMARK  Name = SANCDB_01099_minRM1.pdb
AUTHORGENERATED BY OPEN BABEL 2.3.2
REMARK  9 active torsions:
REMARK  status: ('A' for Active; 'I' for Inactive)
REMARK    1  A    between atoms: C_2  and  O_30
REMARK    2  A    between atoms: C_3  and  O_29
REMARK    3  A    between atoms: C_4  and  O_28
REMARK    4  A    between atoms: C_5  and  O_7
REMARK    5  A    between atoms: O_7  and  C_8
REMARK    6  A    between atoms: C_9  and  C_21
REMARK    7  A    between atoms: C_13  and  O_20
REMARK    8  A    between atoms: C_15  and  O_19
REMARK    9  A    between atoms: C_24  and  O_27
REMARK                            x       y       z     vdW  Elec       q    Type
REMARK                         _______ _______ _______ _____ _____    ______ ____
ROOT
ATOM      1  C   UNL     1      -0.382   0.019  -0.480  1.00  0.00    +0.000 A 
ATOM      2  C   UNL     1      -1.581   0.415  -0.013  1.00  0.00    +0.000 A 
ATOM      3  O   UNL     1      -2.791  -0.147  -0.372  1.00  0.00    +0.000 OA
ATOM      4  C   UNL     1      -2.802  -1.180  -1.272  1.00  0.00    +0.000 A 
ATOM      5  C   UNL     1      -4.059  -1.712  -1.571  1.00  0.00    +0.000 A 
ATOM      6  C   UNL     1      -4.155  -2.765  -2.470  1.00  0.00    +0.000 A 
ATOM      7  C   UNL     1      -3.018  -3.293  -3.071  1.00  0.00    +0.000 A 
ATOM      8  C   UNL     1      -1.764  -2.757  -2.769  1.00  0.00    +0.000 A 
ATOM      9  C   UNL     1      -1.648  -1.690  -1.866  1.00  0.00    +0.000 A 
ATOM     10  C   UNL     1      -0.352  -1.069  -1.509  1.00  0.00    +0.000 A 
ATOM     11  O   UNL     1       0.711  -1.411  -2.017  1.00  0.00    +0.000 OA
ENDROOT
BRANCH   2  12
ATOM     12  C   UNL     1      -1.733   1.499   0.980  1.00  0.00    +0.000 A 
ATOM     13  C   UNL     1      -1.188   2.775   0.762  1.00  0.00    +0.000 A 
ATOM     14  C   UNL     1      -1.356   3.794   1.704  1.00  0.00    +0.000 A 
ATOM     15  C   UNL     1      -2.080   3.540   2.864  1.00  0.00    +0.000 A 
ATOM     16  C   UNL     1      -2.638   2.289   3.094  1.00  0.00    +0.000 A 
ATOM     17  C   UNL     1      -2.467   1.271   2.154  1.00  0.00    +0.000 A 
BRANCH  15  18
ATOM     18  O   UNL     1      -2.270   4.504   3.809  1.00  0.00    +0.000 OA
ATOM     19  H   UNL     1      -1.797   5.306   3.533  1.00  0.00    +0.000 HD
ENDBRANCH  15  18
ENDBRANCH   2  12
BRANCH   8  20
ATOM     20  O   UNL     1      -0.660  -3.298  -3.363  1.00  0.00    +0.000 OA
ATOM     21  H   UNL     1      -0.922  -4.001  -3.980  1.00  0.00    +0.000 HD
ENDBRANCH   8  20
BRANCH   6  22
ATOM     22  O   UNL     1      -5.357  -3.318  -2.795  1.00  0.00    +0.000 OA
ATOM     23  H   UNL     1      -6.065  -2.855  -2.316  1.00  0.00    +0.000 HD
ENDBRANCH   6  22
BRANCH   1  24
ATOM     24  O   UNL     1       0.792   0.637  -0.069  1.00  0.00    +0.000 OA
BRANCH  24  29
ATOM     25  C   UNL     1       3.519  -0.646   1.917  1.00  0.00    +0.000 C 
ATOM     26  C   UNL     1       4.708  -0.242   1.036  1.00  0.00    +0.000 C 
ATOM     27  C   UNL     1       4.241   0.538  -0.203  1.00  0.00    +0.000 C 
ATOM     28  C   UNL     1       2.986  -0.097  -0.809  1.00  0.00    +0.000 C 
ATOM     29  C   UNL     1       1.868  -0.253   0.261  1.00  0.00    +0.000 C 
ATOM     30  O   UNL     1       2.349   0.109   1.571  1.00  0.00    +0.000 OA
BRANCH  28  31
ATOM     31  O   UNL     1       3.325  -1.383  -1.352  1.00  0.00    +0.000 OA
ATOM     32  H   UNL     1       2.518  -1.672  -1.840  1.00  0.00    +0.000 HD
ENDBRANCH  28  31
BRANCH  27  33
ATOM     33  O   UNL     1       3.997   1.909   0.177  1.00  0.00    +0.000 OA
ATOM     34  H   UNL     1       3.252   1.897   0.814  1.00  0.00    +0.000 HD
ENDBRANCH  27  33
BRANCH  26  35
ATOM     35  O   UNL     1       5.616   0.576   1.791  1.00  0.00    +0.000 OA
ATOM     36  H   UNL     1       5.432   1.500   1.521  1.00  0.00    +0.000 HD
ENDBRANCH  26  35
ENDBRANCH  24  29
ENDBRANCH   1  24
TORSDOF 9
