REMARK  Name = /srv/my_project/app/compsite/backup/Dave/CORINA_stuff/newPDBs/SANC00663.pdb
AUTHORGENERATED BY OPEN BABEL 2.3.2
REMARK  6 active torsions:
REMARK  status: ('A' for Active; 'I' for Inactive)
REMARK    1  A    between atoms: C_8  and  C_9
REMARK    2  A    between atoms: C_14  and  C_15
REMARK    3  A    between atoms: C_19  and  O_21
REMARK    4  A    between atoms: C_22  and  C_23
REMARK    5  A    between atoms: C_22  and  C_24
REMARK    6  A    between atoms: C_24  and  O_25
REMARK                            x       y       z     vdW  Elec       q    Type
REMARK                         _______ _______ _______ _____ _____    ______ ____
ROOT
ATOM      1  C   UNL     1      -1.351   0.199   0.632  1.00  0.00    +0.000 C 
ATOM      2  C   UNL     1      -0.798  -0.839   1.635  1.00  0.00    +0.000 C 
ATOM      3  C   UNL     1       0.641  -0.528   2.034  1.00  0.00    +0.000 C 
ATOM      4  C   UNL     1       1.582  -0.406   0.836  1.00  0.00    +0.000 C 
ATOM      5  C   UNL     1       2.077  -1.733   0.295  1.00  0.00    +0.000 C 
ATOM      6  C   UNL     1       3.345  -1.617  -0.132  1.00  0.00    +0.000 C 
ATOM      7  C   UNL     1       3.841  -0.209   0.099  1.00  0.00    +0.000 C 
ATOM      8  C   UNL     1       5.320  -0.138   0.456  1.00  0.00    +0.000 C 
ATOM      9  C   UNL     1       3.483   0.711  -1.089  1.00  0.00    +0.000 C 
ATOM     10  C   UNL     1       1.994   0.634  -1.493  1.00  0.00    +0.000 C 
ATOM     11  C   UNL     1       1.013   0.528  -0.283  1.00  0.00    +0.000 C 
ATOM     12  C   UNL     1      -0.498   0.247  -0.686  1.00  0.00    +0.000 C 
ATOM     13  C   UNL     1      -0.619  -1.058  -1.506  1.00  0.00    +0.000 C 
ATOM     14  C   UNL     1      -0.988   1.433  -1.567  1.00  0.00    +0.000 C 
ATOM     15  C   UNL     1      -2.408   1.882  -1.299  1.00  0.00    +0.000 C 
ATOM     16  O   UNL     1      -2.754   3.044  -1.526  1.00  0.00    +0.000 OA
ATOM     17  C   UNL     1      -3.411   0.838  -0.843  1.00  0.00    +0.000 C 
ATOM     18  C   UNL     1      -2.926   0.113   0.448  1.00  0.00    +0.000 C 
ATOM     19  C   UNL     1      -3.451  -1.343   0.470  1.00  0.00    +0.000 C 
ATOM     20  C   UNL     1       2.944   0.171   1.283  1.00  0.00    +0.000 C 
ENDROOT
BRANCH  17  21
ATOM     21  O   UNL     1      -3.635  -0.055  -1.933  1.00  0.00    +0.000 OA
ATOM     22  H   UNL     1      -4.119   0.452  -2.612  1.00  0.00    +0.000 HD
ENDBRANCH  17  21
BRANCH  18  23
ATOM     23  C   UNL     1      -3.557   0.866   1.665  1.00  0.00    +0.000 C 
BRANCH  23  24
ATOM     24  O   UNL     1      -4.978   0.824   1.649  1.00  0.00    +0.000 OA
ATOM     25  H   UNL     1      -5.256  -0.060   1.948  1.00  0.00    +0.000 HD
ENDBRANCH  23  24
ENDBRANCH  18  23
TORSDOF 3
