REMARK  Name = 
REMARK  16 active torsions:
REMARK  status: ('A' for Active; 'I' for Inactive)
REMARK    1  A    between atoms: C_1  and  C_2
REMARK    2  A    between atoms: C_2  and  C_14
REMARK    3  A    between atoms: C_3  and  C_4
REMARK    4  A    between atoms: C_4  and  C_5
REMARK    5  A    between atoms: C_7  and  O_8
REMARK    6  A    between atoms: C_9  and  C_10
REMARK    7  A    between atoms: C_12  and  O_13
REMARK    8  A    between atoms: C_14  and  C_15
REMARK    9  A    between atoms: C_15  and  C_16
REMARK   10  A    between atoms: C_17  and  C_18
REMARK   11  A    between atoms: C_17  and  C_19
REMARK   12  A    between atoms: C_19  and  C_20
REMARK   13  A    between atoms: C_20  and  C_22
REMARK   14  A    between atoms: C_22  and  C_23
REMARK   15  A    between atoms: C_23  and  C_24
REMARK   16  A    between atoms: C_23  and  C_25
REMARK                            x       y       z     vdW  Elec       q    Type
REMARK                         _______ _______ _______ _____ _____    ______ ____
ROOT
ATOM      1  C   UNL     1      -0.340  -2.379  -1.794  1.00  0.00    +0.000 C 
ATOM      2  C   UNL     1      -1.451  -1.418  -2.121  1.00  0.00    +0.000 C 
ATOM      3  C   UNL     1      -2.566  -1.247  -1.382  1.00  0.00    +0.000 C 
ENDROOT
BRANCH   3   4
ATOM      4  C   UNL     1      -2.959  -1.958  -0.113  1.00  0.00    +0.000 C 
BRANCH   4   5
ATOM      5  C   UNL     1      -2.826  -1.077   1.109  1.00  0.00    +0.000 A 
ATOM      6  C   UNL     1      -3.754  -0.045   1.327  1.00  0.00    +0.000 A 
ATOM      7  C   UNL     1      -3.640   0.783   2.445  1.00  0.00    +0.000 A 
ATOM      8  C   UNL     1      -2.610   0.609   3.372  1.00  0.00    +0.000 A 
ATOM      9  C   UNL     1      -2.497   1.501   4.574  1.00  0.00    +0.000 C 
ATOM     10  C   UNL     1      -1.685  -0.420   3.160  1.00  0.00    +0.000 A 
ATOM     11  C   UNL     1      -1.794  -1.248   2.039  1.00  0.00    +0.000 A 
BRANCH   7  12
ATOM     12  O   UNL     1      -4.544   1.786   2.653  1.00  0.00    +0.000 OA
ATOM     13  H   UNL     1      -5.194   1.776   1.931  1.00  0.00    +0.000 HD
ENDBRANCH   7  12
BRANCH  11  14
ATOM     14  O   UNL     1      -0.883  -2.248   1.847  1.00  0.00    +0.000 OA
ATOM     15  H   UNL     1      -0.274  -2.268   2.604  1.00  0.00    +0.000 HD
ENDBRANCH  11  14
ENDBRANCH   4   5
ENDBRANCH   3   4
BRANCH   2  16
ATOM     16  C   UNL     1      -1.236  -0.610  -3.390  1.00  0.00    +0.000 C 
BRANCH  16  17
ATOM     17  C   UNL     1      -1.037   0.898  -3.174  1.00  0.00    +0.000 C 
BRANCH  17  18
ATOM     18  C   UNL     1       0.101   1.235  -2.248  1.00  0.00    +0.000 C 
ATOM     19  C   UNL     1       1.387   1.466  -2.577  1.00  0.00    +0.000 C 
ATOM     20  C   UNL     1       1.935   1.405  -3.978  1.00  0.00    +0.000 C 
BRANCH  19  21
ATOM     21  C   UNL     1       2.398   1.817  -1.509  1.00  0.00    +0.000 C 
BRANCH  21  22
ATOM     22  C   UNL     1       3.233   0.600  -1.139  1.00  0.00    +0.000 C 
ATOM     23  O   UNL     1       4.257   0.305  -1.759  1.00  0.00    +0.000 OA
BRANCH  22  24
ATOM     24  C   UNL     1       2.753  -0.247   0.025  1.00  0.00    +0.000 C 
BRANCH  24  25
ATOM     25  C   UNL     1       3.215   0.319   1.374  1.00  0.00    +0.000 C 
ATOM     26  C   UNL     1       4.718   0.120   1.581  1.00  0.00    +0.000 C 
ATOM     27  C   UNL     1       2.441  -0.346   2.513  1.00  0.00    +0.000 C 
ENDBRANCH  24  25
ENDBRANCH  22  24
ENDBRANCH  21  22
ENDBRANCH  19  21
ENDBRANCH  17  18
ENDBRANCH  16  17
ENDBRANCH   2  16
TORSDOF 11
