REMARK  Name = /srv/my_project/app/compsite/backup/Dave/CORINA_stuff/newPDBs/SANC00237.pdb
AUTHORGENERATED BY OPEN BABEL 2.3.2
REMARK  12 active torsions:
REMARK  status: ('A' for Active; 'I' for Inactive)
REMARK    1  A    between atoms: C_1  and  C_2
REMARK    2  A    between atoms: C_2  and  O_4
REMARK    3  A    between atoms: O_4  and  C_5
REMARK    4  A    between atoms: C_8  and  O_10
REMARK    5  A    between atoms: O_10  and  C_11
REMARK    6  A    between atoms: C_11  and  C_12
REMARK    7  A    between atoms: C_18  and  C_25
REMARK    8  A    between atoms: C_20  and  C_21
REMARK    9  A    between atoms: C_21  and  C_22
REMARK   10  A    between atoms: C_25  and  C_26
REMARK   11  A    between atoms: C_30  and  C_31
REMARK   12  A    between atoms: C_30  and  C_32
REMARK                            x       y       z     vdW  Elec       q    Type
REMARK                         _______ _______ _______ _____ _____    ______ ____
ROOT
ATOM      1  C   UNL     1       3.028   0.721  -0.954  1.00  0.00    +0.000 C 
ATOM      2  O   UNL     1       3.749  -0.398  -1.494  1.00  0.00    +0.000 OA
ATOM      3  C   UNL     1       3.461  -1.541  -0.686  1.00  0.00    +0.000 C 
ATOM      4  C   UNL     1       2.014  -1.340  -0.261  1.00  0.00    +0.000 C 
ATOM      5  C   UNL     1       1.048  -1.718  -1.374  1.00  0.00    +0.000 C 
ATOM      6  C   UNL     1      -0.394  -1.454  -0.959  1.00  0.00    +0.000 C 
ATOM      7  C   UNL     1      -0.591  -0.321   0.093  1.00  0.00    +0.000 C 
ATOM      8  C   UNL     1       0.516   0.785  -0.181  1.00  0.00    +0.000 C 
ATOM      9  C   UNL     1       1.948   0.164   0.008  1.00  0.00    +0.000 C 
ENDROOT
BRANCH   7  10
ATOM     10  C   UNL     1      -2.145   0.095   0.198  1.00  0.00    +0.000 C 
ATOM     11  C   UNL     1      -2.404   0.694   1.606  1.00  0.00    +0.000 C 
ATOM     12  C   UNL     1      -2.531   1.117  -0.909  1.00  0.00    +0.000 C 
ATOM     13  C   UNL     1      -3.919   0.927  -1.533  1.00  0.00    +0.000 C 
ATOM     14  C   UNL     1      -4.959   0.467  -0.521  1.00  0.00    +0.000 C 
ATOM     15  C   UNL     1      -4.616  -0.923   0.054  1.00  0.00    +0.000 C 
ATOM     16  C   UNL     1      -5.243  -1.090   1.452  1.00  0.00    +0.000 C 
ATOM     17  C   UNL     1      -5.258  -2.012  -0.843  1.00  0.00    +0.000 C 
ATOM     18  C   UNL     1      -3.076  -1.168   0.078  1.00  0.00    +0.000 C 
ENDBRANCH   7  10
BRANCH   8  19
ATOM     19  C   UNL     1       0.361   2.071   0.659  1.00  0.00    +0.000 C 
ATOM     20  C   UNL     1       1.362   3.183   0.388  1.00  0.00    +0.000 C 
ENDBRANCH   8  19
BRANCH   1  21
ATOM     21  O   UNL     1       3.943   1.533  -0.214  1.00  0.00    +0.000 OA
BRANCH  21  23
ATOM     22  C   UNL     1       5.612   3.162  -0.081  1.00  0.00    +0.000 C 
ATOM     23  C   UNL     1       4.609   2.462  -0.947  1.00  0.00    +0.000 C 
ATOM     24  O   UNL     1       4.418   2.727  -2.125  1.00  0.00    +0.000 OA
ENDBRANCH  21  23
ENDBRANCH   1  21
BRANCH   3  25
ATOM     25  O   UNL     1       4.341  -1.552   0.442  1.00  0.00    +0.000 OA
BRANCH  25  26
ATOM     26  C   UNL     1       4.425  -2.747   1.080  1.00  0.00    +0.000 C 
ATOM     27  C   UNL     1       5.396  -2.654   2.216  1.00  0.00    +0.000 C 
ATOM     28  O   UNL     1       3.796  -3.754   0.789  1.00  0.00    +0.000 OA
ENDBRANCH  25  26
ENDBRANCH   3  25
TORSDOF 6
