REMARK  Name = /srv/my_project/app/compsite/backup/Dave/CORINA_stuff/newPDBs/SANC00650.pdb
AUTHORGENERATED BY OPEN BABEL 2.3.2
REMARK  5 active torsions:
REMARK  status: ('A' for Active; 'I' for Inactive)
REMARK    1  A    between atoms: C_1  and  C_2
REMARK    2  A    between atoms: C_6  and  C_18
REMARK    3  A    between atoms: C_6  and  C_19
REMARK    4  A    between atoms: C_11  and  C_16
REMARK    5  A    between atoms: C_12  and  C_14
REMARK                            x       y       z     vdW  Elec       q    Type
REMARK                         _______ _______ _______ _____ _____    ______ ____
ROOT
ATOM      1  C   UNL     1       0.703  -0.798  -1.645  1.00  0.00    +0.000 C 
ATOM      2  C   UNL     1       0.566  -0.667  -0.106  1.00  0.00    +0.000 C 
ATOM      3  C   UNL     1       0.021  -2.016   0.459  1.00  0.00    +0.000 C 
ATOM      4  C   UNL     1      -1.452  -2.004   0.858  1.00  0.00    +0.000 C 
ATOM      5  C   UNL     1      -2.291  -1.180  -0.104  1.00  0.00    +0.000 C 
ATOM      6  C   UNL     1      -1.915   0.322  -0.071  1.00  0.00    +0.000 C 
ATOM      7  C   UNL     1      -0.388   0.526   0.267  1.00  0.00    +0.000 C 
ATOM      8  C   UNL     1       0.178   1.881  -0.231  1.00  0.00    +0.000 C 
ATOM      9  C   UNL     1       1.642   2.052   0.045  1.00  0.00    +0.000 C 
ATOM     10  C   UNL     1       2.445   1.044   0.424  1.00  0.00    +0.000 C 
ATOM     11  C   UNL     1       1.964  -0.377   0.571  1.00  0.00    +0.000 C 
ATOM     12  C   UNL     1      -2.367   0.960  -1.403  1.00  0.00    +0.000 C 
ATOM     13  C   UNL     1      -2.750   1.011   1.041  1.00  0.00    +0.000 C 
ENDROOT
BRANCH  11  14
ATOM     14  C   UNL     1       3.056  -1.328   0.098  1.00  0.00    +0.000 C 
ATOM     15  O   UNL     1       3.782  -1.942   0.876  1.00  0.00    +0.000 OA
ENDBRANCH  11  14
BRANCH  10  16
ATOM     16  C   UNL     1       3.858   1.375   0.770  1.00  0.00    +0.000 C 
ATOM     17  O   UNL     1       4.438   2.364   0.339  1.00  0.00    +0.000 OA
ENDBRANCH  10  16
TORSDOF 2
