REMARK  Name = SANCDB_00890_minRM1.pdb
AUTHORGENERATED BY OPEN BABEL 2.3.2
REMARK  3 active torsions:
REMARK  status: ('A' for Active; 'I' for Inactive)
REMARK    1  A    between atoms: C_2  and  O_9
REMARK    2  A    between atoms: C_4  and  O_8
REMARK    3  A    between atoms: C_6  and  O_7
REMARK                            x       y       z     vdW  Elec       q    Type
REMARK                         _______ _______ _______ _____ _____    ______ ____
ROOT
ATOM      1  C   UNL     1      -0.294  -1.353  -0.223  1.00  0.00    +0.000 A 
ATOM      2  C   UNL     1      -1.330  -0.584   0.298  1.00  0.00    +0.000 A 
ATOM      3  C   UNL     1      -1.151   0.770   0.558  1.00  0.00    +0.000 A 
ATOM      4  C   UNL     1       0.083   1.357   0.292  1.00  0.00    +0.000 A 
ATOM      5  C   UNL     1       1.136   0.608  -0.229  1.00  0.00    +0.000 A 
ATOM      6  C   UNL     1       0.933  -0.748  -0.481  1.00  0.00    +0.000 A 
ENDROOT
BRANCH   6   7
ATOM      7  O   UNL     1       1.926  -1.532  -0.992  1.00  0.00    +0.000 OA
ATOM      8  H   UNL     1       2.721  -0.990  -1.124  1.00  0.00    +0.000 HD
ENDBRANCH   6   7
BRANCH   4   9
ATOM      9  O   UNL     1       0.222   2.688   0.560  1.00  0.00    +0.000 OA
ATOM     10  H   UNL     1       1.123   2.966   0.331  1.00  0.00    +0.000 HD
ENDBRANCH   4   9
BRANCH   2  11
ATOM     11  O   UNL     1      -2.551  -1.130   0.569  1.00  0.00    +0.000 OA
ATOM     12  H   UNL     1      -2.526  -2.073   0.338  1.00  0.00    +0.000 HD
ENDBRANCH   2  11
TORSDOF 3
