REMARK  Name = /srv/my_project/app/compsite/backup/Dave/CORINA_stuff/newPDBs/SANC00340.pdb
AUTHORGENERATED BY OPEN BABEL 2.3.2
REMARK  11 active torsions:
REMARK  status: ('A' for Active; 'I' for Inactive)
REMARK    1  A    between atoms: C_1  and  O_2
REMARK    2  A    between atoms: O_2  and  C_3
REMARK    3  A    between atoms: C_4  and  O_5
REMARK    4  A    between atoms: C_10  and  O_11
REMARK    5  A    between atoms: O_11  and  C_12
REMARK    6  A    between atoms: C_13  and  O_14
REMARK    7  A    between atoms: O_14  and  C_15
REMARK    8  A    between atoms: C_16  and  O_17
REMARK    9  A    between atoms: O_17  and  C_18
REMARK   10  A    between atoms: C_19  and  O_20
REMARK   11  A    between atoms: C_25  and  O_26
REMARK                            x       y       z     vdW  Elec       q    Type
REMARK                         _______ _______ _______ _____ _____    ______ ____
ROOT
ATOM      1  C   UNL     1       4.202   1.279  -0.115  1.00  0.00    +0.000 A 
ATOM      2  C   UNL     1       3.766   1.686  -1.387  1.00  0.00    +0.000 A 
ATOM      3  C   UNL     1       2.454   1.519  -1.813  1.00  0.00    +0.000 A 
ATOM      4  C   UNL     1       1.534   0.927  -0.956  1.00  0.00    +0.000 A 
ATOM      5  O   UNL     1       0.258   0.790  -1.441  1.00  0.00    +0.000 OA
ATOM      6  C   UNL     1      -0.697   0.209  -0.642  1.00  0.00    +0.000 A 
ATOM      7  C   UNL     1      -1.985   0.072  -1.180  1.00  0.00    +0.000 A 
ATOM      8  C   UNL     1      -3.025  -0.499  -0.429  1.00  0.00    +0.000 A 
ATOM      9  C   UNL     1      -2.766  -0.913   0.885  1.00  0.00    +0.000 A 
ATOM     10  C   UNL     1      -1.471  -0.812   1.415  1.00  0.00    +0.000 A 
ATOM     11  C   UNL     1      -0.444  -0.247   0.648  1.00  0.00    +0.000 A 
ATOM     12  C   UNL     1       0.920  -0.107   1.172  1.00  0.00    +0.000 A 
ATOM     13  O   UNL     1       1.204  -0.500   2.302  1.00  0.00    +0.000 OA
ATOM     14  C   UNL     1       1.938   0.512   0.312  1.00  0.00    +0.000 A 
ATOM     15  C   UNL     1       3.270   0.683   0.743  1.00  0.00    +0.000 A 
ENDROOT
BRANCH   1  17
ATOM     16  C   UNL     1       6.091   1.189   1.361  1.00  0.00    +0.000 C 
ATOM     17  O   UNL     1       5.532   1.537   0.101  1.00  0.00    +0.000 OA
ENDBRANCH   1  17
BRANCH   2  18
ATOM     18  O   UNL     1       4.647   2.272  -2.258  1.00  0.00    +0.000 OA
ATOM     19  H   UNL     1       5.499   2.301  -1.778  1.00  0.00    +0.000 HD
ENDBRANCH   2  18
BRANCH   7  20
ATOM     20  O   UNL     1      -2.232   0.569  -2.440  1.00  0.00    +0.000 OA
ATOM     21  C   UNL     1      -2.127  -0.470  -3.413  1.00  0.00    +0.000 C 
ENDBRANCH   7  20
BRANCH   8  22
ATOM     22  O   UNL     1      -4.264  -0.544  -1.019  1.00  0.00    +0.000 OA
ATOM     23  C   UNL     1      -4.926  -1.801  -0.900  1.00  0.00    +0.000 C 
ENDBRANCH   8  22
BRANCH   9  24
ATOM     24  O   UNL     1      -3.769  -1.450   1.655  1.00  0.00    +0.000 OA
ATOM     25  C   UNL     1      -4.342  -0.441   2.486  1.00  0.00    +0.000 C 
ENDBRANCH   9  24
BRANCH  10  26
ATOM     26  O   UNL     1      -1.258  -1.266   2.693  1.00  0.00    +0.000 OA
ATOM     27  H   UNL     1      -0.310  -1.143   2.918  1.00  0.00    +0.000 HD
ENDBRANCH  10  26
BRANCH  15  28
ATOM     28  O   UNL     1       3.652   0.267   1.994  1.00  0.00    +0.000 OA
ATOM     29  H   UNL     1       2.876  -0.124   2.453  1.00  0.00    +0.000 HD
ENDBRANCH  15  28
TORSDOF 7
