REMARK  Name = SANCDB_00823_minRM1.pdb
AUTHORGENERATED BY OPEN BABEL 2.3.2
REMARK  11 active torsions:
REMARK  status: ('A' for Active; 'I' for Inactive)
REMARK    1  A    between atoms: C_1  and  C_2
REMARK    2  A    between atoms: C_5  and  C_32
REMARK    3  A    between atoms: C_8  and  C_31
REMARK    4  A    between atoms: C_13  and  C_26
REMARK    5  A    between atoms: C_17  and  C_25
REMARK    6  A    between atoms: C_20  and  O_24
REMARK    7  A    between atoms: C_21  and  C_22
REMARK    8  A    between atoms: C_21  and  C_23
REMARK    9  A    between atoms: C_28  and  C_29
REMARK   10  A    between atoms: C_28  and  O_30
REMARK   11  A    between atoms: C_32  and  O_34
REMARK                            x       y       z     vdW  Elec       q    Type
REMARK                         _______ _______ _______ _____ _____    ______ ____
ROOT
ATOM      1  C   UNL     1      -6.287  -1.499  -1.915  1.00  0.00    +0.000 C 
ATOM      2  C   UNL     1      -5.404  -1.212  -0.691  1.00  0.00    +0.000 C 
ATOM      3  C   UNL     1      -6.028  -0.065   0.135  1.00  0.00    +0.000 C 
ATOM      4  C   UNL     1      -5.295   1.264  -0.020  1.00  0.00    +0.000 C 
ATOM      5  C   UNL     1      -3.803   1.184   0.410  1.00  0.00    +0.000 C 
ATOM      6  C   UNL     1      -3.018   2.261  -0.378  1.00  0.00    +0.000 C 
ATOM      7  C   UNL     1      -1.520   2.248  -0.072  1.00  0.00    +0.000 C 
ATOM      8  C   UNL     1      -0.811   0.886  -0.320  1.00  0.00    +0.000 C 
ATOM      9  C   UNL     1      -1.659  -0.275   0.246  1.00  0.00    +0.000 C 
ATOM     10  C   UNL     1      -1.079  -1.318   0.878  1.00  0.00    +0.000 C 
ATOM     11  C   UNL     1       0.391  -1.533   1.079  1.00  0.00    +0.000 C 
ATOM     12  C   UNL     1       1.279  -0.558   0.281  1.00  0.00    +0.000 C 
ATOM     13  C   UNL     1       0.684   0.899   0.364  1.00  0.00    +0.000 C 
ATOM     14  C   UNL     1       1.630   1.895  -0.360  1.00  0.00    +0.000 C 
ATOM     15  C   UNL     1       3.104   1.751   0.017  1.00  0.00    +0.000 C 
ATOM     16  C   UNL     1       3.609   0.332  -0.311  1.00  0.00    +0.000 C 
ATOM     17  C   UNL     1       2.846  -0.751   0.523  1.00  0.00    +0.000 C 
ATOM     18  C   UNL     1       3.250  -2.175  -0.003  1.00  0.00    +0.000 C 
ATOM     19  C   UNL     1       4.514  -2.222  -0.869  1.00  0.00    +0.000 C 
ATOM     20  C   UNL     1       5.625  -1.302  -0.370  1.00  0.00    +0.000 C 
ATOM     21  C   UNL     1       5.183   0.197  -0.347  1.00  0.00    +0.000 C 
ATOM     22  C   UNL     1       5.893   0.973   0.783  1.00  0.00    +0.000 C 
ATOM     23  C   UNL     1       5.676   0.829  -1.682  1.00  0.00    +0.000 C 
ATOM     24  C   UNL     1       3.228  -0.699   2.023  1.00  0.00    +0.000 C 
ATOM     25  C   UNL     1       0.571   1.367   1.849  1.00  0.00    +0.000 C 
ATOM     26  C   UNL     1      -3.204  -0.239   0.172  1.00  0.00    +0.000 C 
ATOM     27  C   UNL     1      -3.897  -0.963  -1.047  1.00  0.00    +0.000 C 
ATOM     28  C   UNL     1      -3.218  -2.297  -1.403  1.00  0.00    +0.000 C 
ATOM     29  C   UNL     1      -0.720   0.686  -1.859  1.00  0.00    +0.000 C 
ENDROOT
BRANCH  20  30
ATOM     30  O   UNL     1       6.061  -1.752   0.911  1.00  0.00    +0.000 OA
ATOM     31  H   UNL     1       6.352  -2.675   0.817  1.00  0.00    +0.000 HD
ENDBRANCH  20  30
BRANCH  27  32
ATOM     32  O   UNL     1      -3.845  -0.130  -2.208  1.00  0.00    +0.000 OA
ATOM     33  H   UNL     1      -4.037  -0.673  -2.991  1.00  0.00    +0.000 HD
ENDBRANCH  27  32
BRANCH   5  34
ATOM     34  C   UNL     1      -3.774   1.556   1.901  1.00  0.00    +0.000 C 
ATOM     35  O   UNL     1      -3.554   2.661   2.373  1.00  0.00    +0.000 OA
BRANCH  34  36
ATOM     36  O   UNL     1      -4.110   0.554   2.737  1.00  0.00    +0.000 OA
ATOM     37  H   UNL     1      -4.060   0.973   3.622  1.00  0.00    +0.000 HD
ENDBRANCH  34  36
ENDBRANCH   5  34
TORSDOF 4
