REMARK  Name = /srv/my_project/app/compsite/backup/Dave/CORINA_stuff/newPDBs/SANC00494.pdb
AUTHORGENERATED BY OPEN BABEL 2.3.2
REMARK  25 active torsions:
REMARK  status: ('A' for Active; 'I' for Inactive)
REMARK    1  A    between atoms: C_11  and  C_12
REMARK    2  A    between atoms: C_19  and  C_21
REMARK    3  A    between atoms: C_22  and  C_23
REMARK    4  A    between atoms: C_22  and  C_24
REMARK    5  A    between atoms: C_25  and  O_27
REMARK    6  A    between atoms: C_28  and  C_30
REMARK    7  A    between atoms: C_33  and  C_34
REMARK    8  A    between atoms: C_37  and  O_39
REMARK    9  A    between atoms: O_39  and  C_40
REMARK   10  A    between atoms: C_43  and  C_45
REMARK   11  A    between atoms: C_45  and  O_46
REMARK   12  A    between atoms: C_47  and  O_49
REMARK   13  A    between atoms: C_50  and  O_52
REMARK   14  A    between atoms: C_53  and  O_55
REMARK   15  A    between atoms: O_55  and  C_56
REMARK   16  A    between atoms: C_59  and  C_61
REMARK   17  A    between atoms: C_61  and  O_62
REMARK   18  A    between atoms: C_63  and  O_65
REMARK   19  A    between atoms: C_66  and  O_68
REMARK   20  A    between atoms: C_69  and  O_71
REMARK   21  A    between atoms: O_71  and  C_72
REMARK   22  A    between atoms: C_75  and  C_77
REMARK   23  A    between atoms: C_78  and  O_80
REMARK   24  A    between atoms: C_81  and  O_83
REMARK   25  A    between atoms: C_84  and  O_86
REMARK                            x       y       z     vdW  Elec       q    Type
REMARK                         _______ _______ _______ _____ _____    ______ ____
ROOT
ATOM      1  C   UNL     1      -2.962  -2.244  -1.437  1.00  0.00    +0.000 C 
ATOM      2  O   UNL     1      -2.707  -3.278  -2.393  1.00  0.00    +0.000 OA
ATOM      3  C   UNL     1      -2.981  -4.586  -1.843  1.00  0.00    +0.000 C 
ATOM      4  C   UNL     1      -4.319  -4.621  -1.076  1.00  0.00    +0.000 C 
ATOM      5  C   UNL     1      -5.210  -3.429  -1.471  1.00  0.00    +0.000 C 
ATOM      6  C   UNL     1      -4.492  -2.077  -1.259  1.00  0.00    +0.000 C 
ENDROOT
BRANCH   4   7
ATOM      7  O   UNL     1      -4.028  -4.576   0.327  1.00  0.00    +0.000 OA
ATOM      8  H   UNL     1      -4.867  -4.466   0.810  1.00  0.00    +0.000 HD
ENDBRANCH   4   7
BRANCH   5   9
ATOM      9  O   UNL     1      -5.645  -3.576  -2.829  1.00  0.00    +0.000 OA
ATOM     10  H   UNL     1      -4.924  -3.259  -3.408  1.00  0.00    +0.000 HD
ENDBRANCH   5   9
BRANCH   3  11
ATOM     11  C   UNL     1      -2.977  -5.560  -3.026  1.00  0.00    +0.000 C 
BRANCH  11  12
ATOM     12  O   UNL     1      -1.717  -5.498  -3.697  1.00  0.00    +0.000 OA
ATOM     13  H   UNL     1      -1.511  -4.546  -3.782  1.00  0.00    +0.000 HD
ENDBRANCH  11  12
ENDBRANCH   3  11
BRANCH   6  14
ATOM     14  O   UNL     1      -4.771  -1.624   0.081  1.00  0.00    +0.000 OA
BRANCH  14  15
ATOM     15  C   UNL     1      -5.312  -0.296   0.130  1.00  0.00    +0.000 C 
ATOM     16  O   UNL     1      -4.414   0.623  -0.486  1.00  0.00    +0.000 OA
ATOM     17  C   UNL     1      -4.439   1.920   0.095  1.00  0.00    +0.000 C 
ATOM     18  C   UNL     1      -3.866   1.866   1.522  1.00  0.00    +0.000 C 
ATOM     19  C   UNL     1      -4.448   0.685   2.325  1.00  0.00    +0.000 C 
ATOM     20  C   UNL     1      -5.646   0.017   1.619  1.00  0.00    +0.000 C 
BRANCH  18  21
ATOM     21  O   UNL     1      -4.122   3.101   2.206  1.00  0.00    +0.000 OA
ATOM     22  H   UNL     1      -3.726   3.804   1.649  1.00  0.00    +0.000 HD
ENDBRANCH  18  21
BRANCH  19  23
ATOM     23  O   UNL     1      -3.407  -0.277   2.567  1.00  0.00    +0.000 OA
ATOM     24  H   UNL     1      -3.735  -0.894   3.243  1.00  0.00    +0.000 HD
ENDBRANCH  19  23
BRANCH  17  25
ATOM     25  C   UNL     1      -3.616   2.867  -0.788  1.00  0.00    +0.000 C 
BRANCH  25  26
ATOM     26  O   UNL     1      -3.664   4.205  -0.294  1.00  0.00    +0.000 OA
ATOM     27  H   UNL     1      -4.529   4.571  -0.557  1.00  0.00    +0.000 HD
ENDBRANCH  25  26
ENDBRANCH  17  25
BRANCH  20  28
ATOM     28  O   UNL     1      -6.773   0.900   1.775  1.00  0.00    +0.000 OA
BRANCH  28  29
ATOM     29  C   UNL     1      -8.037   0.300   1.475  1.00  0.00    +0.000 C 
ATOM     30  O   UNL     1      -8.338   0.519   0.099  1.00  0.00    +0.000 OA
ATOM     31  C   UNL     1      -9.554  -0.098  -0.344  1.00  0.00    +0.000 C 
ATOM     32  C   UNL     1      -9.273  -1.527  -0.801  1.00  0.00    +0.000 C 
ATOM     33  C   UNL     1     -10.684  -0.037   0.702  1.00  0.00    +0.000 C 
ATOM     34  C   UNL     1     -10.432   1.141   1.644  1.00  0.00    +0.000 C 
ATOM     35  C   UNL     1      -9.107   0.944   2.387  1.00  0.00    +0.000 C 
BRANCH  33  36
ATOM     36  O   UNL     1     -11.964   0.139   0.081  1.00  0.00    +0.000 OA
ATOM     37  H   UNL     1     -12.135  -0.644  -0.474  1.00  0.00    +0.000 HD
ENDBRANCH  33  36
BRANCH  34  38
ATOM     38  O   UNL     1     -11.504   1.244   2.598  1.00  0.00    +0.000 OA
ATOM     39  H   UNL     1     -12.320   1.197   2.058  1.00  0.00    +0.000 HD
ENDBRANCH  34  38
BRANCH  35  40
ATOM     40  O   UNL     1      -9.338   0.080   3.521  1.00  0.00    +0.000 OA
ATOM     41  H   UNL     1     -10.184   0.403   3.899  1.00  0.00    +0.000 HD
ENDBRANCH  35  40
ENDBRANCH  28  29
ENDBRANCH  20  28
ENDBRANCH  14  15
ENDBRANCH   6  14
BRANCH   1  42
ATOM     42  O   UNL     1      -2.423  -1.021  -1.944  1.00  0.00    +0.000 OA
BRANCH  42  65
ATOM     43  C   UNL     1       0.812  -0.099  -0.150  1.00  0.00    +0.000 C 
ATOM     44  C   UNL     1       1.603  -1.388   0.084  1.00  0.00    +0.000 C 
ATOM     45  C   UNL     1       3.000  -1.085   0.628  1.00  0.00    +0.000 C 
ATOM     46  C   UNL     1       3.569   0.277   0.173  1.00  0.00    +0.000 C 
ATOM     47  C   UNL     1       3.050   0.639  -1.244  1.00  0.00    +0.000 C 
ATOM     48  C   UNL     1       3.796   1.839  -1.881  1.00  0.00    +0.000 C 
ATOM     49  C   UNL     1       5.327   1.766  -1.759  1.00  0.00    +0.000 C 
ATOM     50  C   UNL     1       5.769   1.546  -0.303  1.00  0.00    +0.000 C 
ATOM     51  C   UNL     1       5.394   2.782   0.551  1.00  0.00    +0.000 C 
ATOM     52  C   UNL     1       5.102   0.238   0.175  1.00  0.00    +0.000 C 
ATOM     53  C   UNL     1       5.809  -0.069   1.489  1.00  0.00    +0.000 C 
ATOM     54  C   UNL     1       7.269   0.338   1.221  1.00  0.00    +0.000 C 
ATOM     55  O   UNL     1       7.743   1.094   2.325  1.00  0.00    +0.000 OA
ATOM     56  C   UNL     1       9.074   1.591   2.176  1.00  0.00    +0.000 C 
ATOM     57  C   UNL     1       9.536   1.797   0.710  1.00  0.00    +0.000 C 
ATOM     58  C   UNL     1       8.335   2.264  -0.136  1.00  0.00    +0.000 C 
ATOM     59  C   UNL     1       8.763   2.606  -1.567  1.00  0.00    +0.000 C 
ATOM     60  C   UNL     1       7.265   1.151  -0.109  1.00  0.00    +0.000 C 
ATOM     61  C   UNL     1       1.467   0.765  -1.283  1.00  0.00    +0.000 C 
ATOM     62  C   UNL     1       1.004   2.228  -1.068  1.00  0.00    +0.000 C 
ATOM     63  C   UNL     1       0.998   0.295  -2.691  1.00  0.00    +0.000 C 
ATOM     64  C   UNL     1      -0.505   0.081  -2.815  1.00  0.00    +0.000 C 
ATOM     65  C   UNL     1      -1.009  -0.911  -1.772  1.00  0.00    +0.000 C 
ATOM     66  C   UNL     1      -0.682  -0.391  -0.372  1.00  0.00    +0.000 C 
BRANCH  56  67
ATOM     67  C   UNL     1       9.967   0.830   3.131  1.00  0.00    +0.000 C 
ATOM     68  C   UNL     1      10.854  -0.173   2.962  1.00  0.00    +0.000 C 
ATOM     69  C   UNL     1      11.117  -0.916   1.686  1.00  0.00    +0.000 C 
ATOM     70  C   UNL     1      11.656  -0.673   4.139  1.00  0.00    +0.000 C 
ENDBRANCH  56  67
BRANCH  57  71
ATOM     71  O   UNL     1      10.593   2.760   0.651  1.00  0.00    +0.000 OA
ATOM     72  H   UNL     1      11.303   2.437   1.236  1.00  0.00    +0.000 HD
ENDBRANCH  57  71
ENDBRANCH  42  65
ENDBRANCH   1  42
TORSDOF 19
