REMARK  Name = SANCDB_00962_minRM1.pdb
AUTHORGENERATED BY OPEN BABEL 2.3.2
REMARK  6 active torsions:
REMARK  status: ('A' for Active; 'I' for Inactive)
REMARK    1  A    between atoms: C_1  and  C_2
REMARK    2  A    between atoms: C_9  and  O_14
REMARK    3  A    between atoms: C_11  and  C_12
REMARK    4  A    between atoms: C_11  and  O_13
REMARK    5  A    between atoms: O_14  and  C_15
REMARK    6  A    between atoms: C_15  and  C_17
REMARK                            x       y       z     vdW  Elec       q    Type
REMARK                         _______ _______ _______ _____ _____    ______ ____
ROOT
ATOM      1  C   UNL     1      -3.670  -2.070  -1.207  1.00  0.00    +0.000 C 
ATOM      2  C   UNL     1      -3.126  -0.835  -0.571  1.00  0.00    +0.000 C 
ATOM      3  C   UNL     1      -3.826   0.016   0.187  1.00  0.00    +0.000 C 
ATOM      4  C   UNL     1      -3.002   1.174   0.623  1.00  0.00    +0.000 C 
ATOM      5  C   UNL     1      -1.801   1.116  -0.345  1.00  0.00    +0.000 C 
ATOM      6  C   UNL     1      -1.697  -0.369  -0.791  1.00  0.00    +0.000 C 
ATOM      7  C   UNL     1      -0.625  -1.203  -0.077  1.00  0.00    +0.000 C 
ATOM      8  C   UNL     1       0.772  -1.004  -0.658  1.00  0.00    +0.000 C 
ATOM      9  C   UNL     1       1.486   0.296  -0.281  1.00  0.00    +0.000 C 
ATOM     10  C   UNL     1       0.709   1.561  -0.670  1.00  0.00    +0.000 C 
ATOM     11  C   UNL     1      -0.551   1.887   0.147  1.00  0.00    +0.000 C 
ATOM     12  C   UNL     1      -0.272   1.831   1.655  1.00  0.00    +0.000 C 
ATOM     13  C   UNL     1       1.392  -2.287  -0.192  1.00  0.00    +0.000 C 
ATOM     14  C   UNL     1       2.635  -2.597   0.196  1.00  0.00    +0.000 C 
ATOM     15  C   UNL     1       0.306  -3.295  -0.157  1.00  0.00    +0.000 C 
ATOM     16  O   UNL     1       0.428  -4.501  -0.067  1.00  0.00    +0.000 OA
ATOM     17  O   UNL     1      -0.863  -2.612  -0.271  1.00  0.00    +0.000 OA
ENDROOT
BRANCH  11  18
ATOM     18  O   UNL     1      -0.816   3.280  -0.141  1.00  0.00    +0.000 OA
ATOM     19  H   UNL     1      -1.561   3.579   0.409  1.00  0.00    +0.000 HD
ENDBRANCH  11  18
BRANCH   9  20
ATOM     20  O   UNL     1       2.722   0.331  -1.048  1.00  0.00    +0.000 OA
BRANCH  20  21
ATOM     21  C   UNL     1       3.768   0.995  -0.480  1.00  0.00    +0.000 C 
ATOM     22  O   UNL     1       3.754   1.524   0.622  1.00  0.00    +0.000 OA
ATOM     23  C   UNL     1       4.949   0.973  -1.400  1.00  0.00    +0.000 C 
ENDBRANCH  20  21
ENDBRANCH   9  20
TORSDOF 3
