REMARK  Name = /srv/my_project/app/compsite/backup/Dave/CORINA_stuff/newPDBs/SANC00676.pdb
AUTHORGENERATED BY OPEN BABEL 2.3.2
REMARK  7 active torsions:
REMARK  status: ('A' for Active; 'I' for Inactive)
REMARK    1  A    between atoms: C_1  and  O_2
REMARK    2  A    between atoms: O_2  and  C_3
REMARK    3  A    between atoms: C_6  and  C_7
REMARK    4  A    between atoms: C_8  and  C_9
REMARK    5  A    between atoms: C_11  and  O_12
REMARK    6  A    between atoms: O_12  and  C_13
REMARK    7  A    between atoms: C_21  and  O_22
REMARK                            x       y       z     vdW  Elec       q    Type
REMARK                         _______ _______ _______ _____ _____    ______ ____
ROOT
ATOM      1  C   UNL     1       0.560   1.020   2.570  1.00  0.00    +0.000 C 
ATOM      2  C   UNL     1      -0.451   0.141   2.675  1.00  0.00    +0.000 C 
ENDROOT
BRANCH   2   3
ATOM      3  C   UNL     1      -0.978  -0.732   1.617  1.00  0.00    +0.000 A 
ATOM      4  C   UNL     1      -2.360  -0.686   1.322  1.00  0.00    +0.000 A 
ATOM      5  C   UNL     1      -2.915  -1.507   0.332  1.00  0.00    +0.000 A 
ATOM      6  C   UNL     1      -2.055  -2.367  -0.331  1.00  0.00    +0.000 A 
ATOM      7  O   UNL     1      -2.395  -3.243  -1.321  1.00  0.00    +0.000 OA
ATOM      8  C   UNL     1      -1.120  -3.845  -1.610  1.00  0.00    +0.000 C 
ATOM      9  O   UNL     1      -0.047  -3.336  -0.794  1.00  0.00    +0.000 OA
ATOM     10  C   UNL     1      -0.713  -2.423  -0.036  1.00  0.00    +0.000 A 
ATOM     11  C   UNL     1      -0.144  -1.625   0.933  1.00  0.00    +0.000 A 
BRANCH   5  12
ATOM     12  O   UNL     1      -4.227  -1.542  -0.044  1.00  0.00    +0.000 OA
ATOM     13  C   UNL     1      -5.117  -0.664   0.630  1.00  0.00    +0.000 C 
ENDBRANCH   5  12
ENDBRANCH   2   3
BRANCH   1  17
ATOM     14  C   UNL     1       2.883   1.978  -0.907  1.00  0.00    +0.000 A 
ATOM     15  C   UNL     1       1.490   2.054  -0.953  1.00  0.00    +0.000 A 
ATOM     16  C   UNL     1       0.725   1.740   0.178  1.00  0.00    +0.000 A 
ATOM     17  C   UNL     1       1.341   1.335   1.367  1.00  0.00    +0.000 A 
ATOM     18  C   UNL     1       2.737   1.273   1.423  1.00  0.00    +0.000 A 
ATOM     19  C   UNL     1       3.494   1.588   0.293  1.00  0.00    +0.000 A 
BRANCH  14  21
ATOM     20  C   UNL     1       3.125   2.605  -3.194  1.00  0.00    +0.000 C 
ATOM     21  O   UNL     1       3.722   2.264  -1.951  1.00  0.00    +0.000 OA
ENDBRANCH  14  21
BRANCH  19  22
ATOM     22  O   UNL     1       4.862   1.517   0.352  1.00  0.00    +0.000 OA
ATOM     23  H   UNL     1       5.127   1.205   1.231  1.00  0.00    +0.000 HD
ENDBRANCH  19  22
ENDBRANCH   1  17
TORSDOF 5
