REMARK  Name = /srv/my_project/app/compsite/backup/Dave/CORINA_stuff/newPDBs/SANC00215.pdb
AUTHORGENERATED BY OPEN BABEL 2.3.2
REMARK  7 active torsions:
REMARK  status: ('A' for Active; 'I' for Inactive)
REMARK    1  A    between atoms: C_1  and  C_2
REMARK    2  A    between atoms: C_2  and  C_4
REMARK    3  A    between atoms: C_2  and  C_15
REMARK    4  A    between atoms: C_5  and  C_6
REMARK    5  A    between atoms: C_6  and  C_9
REMARK    6  A    between atoms: C_9  and  C_10
REMARK    7  A    between atoms: C_9  and  C_12
REMARK                            x       y       z     vdW  Elec       q    Type
REMARK                         _______ _______ _______ _____ _____    ______ ____
ROOT
ATOM      1  C   UNL     1      -1.168   0.439   0.560  1.00  0.00    +0.000 C 
ATOM      2 BR   UNL     1      -1.912   0.739   2.368  1.00  0.00    +0.000 Br
ENDROOT
BRANCH   1   3
ATOM      3  C   UNL     1      -2.158  -0.359  -0.349  1.00  0.00    +0.000 C 
ATOM      4  C   UNL     1      -2.462  -1.772   0.184  1.00  0.00    +0.000 C 
ATOM      5 CL   UNL     1      -1.348  -0.586  -1.977  1.00  0.00    +0.000 Cl
BRANCH   3   6
ATOM      6  C   UNL     1      -3.476   0.327  -0.695  1.00  0.00    +0.000 C 
ATOM      7  C   UNL     1      -3.830   1.597  -0.467  1.00  0.00    +0.000 C 
ATOM      8 CL   UNL     1      -5.361   2.216  -0.933  1.00  0.00    +0.000 Cl
ENDBRANCH   3   6
ENDBRANCH   1   3
BRANCH   1  10
ATOM      9  C   UNL     1       1.352   0.360   0.422  1.00  0.00    +0.000 C 
ATOM     10  C   UNL     1       0.185  -0.195   0.805  1.00  0.00    +0.000 C 
BRANCH   9  12
ATOM     11  C   UNL     1       3.670   0.925   1.173  1.00  0.00    +0.000 C 
ATOM     12  C   UNL     1       2.772  -0.175   0.589  1.00  0.00    +0.000 C 
ATOM     13 CL   UNL     1       2.810  -1.538   1.788  1.00  0.00    +0.000 Cl
BRANCH  12  14
ATOM     14  C   UNL     1       3.330  -0.743  -0.727  1.00  0.00    +0.000 C 
ATOM     15 BR   UNL     1       3.462   0.571  -2.168  1.00  0.00    +0.000 Br
ENDBRANCH  12  14
ENDBRANCH   9  12
ENDBRANCH   1  10
TORSDOF 5
