REMARK  Name = /srv/my_project/app/compsite/backup/Dave/CORINA_stuff/newPDBs/SANC00390.pdb
AUTHORGENERATED BY OPEN BABEL 2.3.2
REMARK  27 active torsions:
REMARK  status: ('A' for Active; 'I' for Inactive)
REMARK    1  A    between atoms: C_2  and  O_3
REMARK    2  A    between atoms: O_3  and  C_4
REMARK    3  A    between atoms: C_15  and  O_17
REMARK    4  A    between atoms: C_20  and  C_21
REMARK    5  A    between atoms: C_26  and  C_27
REMARK    6  A    between atoms: C_28  and  O_29
REMARK    7  A    between atoms: C_28  and  C_30
REMARK    8  A    between atoms: C_30  and  C_32
REMARK    9  A    between atoms: C_30  and  C_33
REMARK   10  A    between atoms: C_33  and  C_35
REMARK   11  A    between atoms: C_35  and  C_36
REMARK   12  A    between atoms: C_36  and  C_37
REMARK   13  A    between atoms: C_37  and  C_38
REMARK   14  A    between atoms: C_37  and  C_39
REMARK   15  A    between atoms: C_42  and  O_44
REMARK   16  A    between atoms: C_45  and  O_47
REMARK   17  A    between atoms: O_47  and  C_48
REMARK   18  A    between atoms: C_52  and  O_54
REMARK   19  A    between atoms: C_55  and  O_57
REMARK   20  A    between atoms: C_58  and  O_60
REMARK   21  A    between atoms: O_60  and  C_61
REMARK   22  A    between atoms: C_61  and  C_63
REMARK   23  A    between atoms: C_66  and  O_67
REMARK   24  A    between atoms: O_67  and  C_68
REMARK   25  A    between atoms: C_71  and  O_73
REMARK   26  A    between atoms: O_73  and  C_74
REMARK   27  A    between atoms: C_74  and  C_75
REMARK                            x       y       z     vdW  Elec       q    Type
REMARK                         _______ _______ _______ _____ _____    ______ ____
ROOT
ATOM      1  C   UNL     1       0.361  -0.147   0.467  1.00  0.00    +0.000 C 
ATOM      2  O   UNL     1       0.363   0.061   1.883  1.00  0.00    +0.000 OA
ATOM      3  C   UNL     1       0.165   1.428   2.239  1.00  0.00    +0.000 C 
ATOM      4  C   UNL     1       1.311   2.311   1.737  1.00  0.00    +0.000 C 
ATOM      5  C   UNL     1       2.185   1.567   0.716  1.00  0.00    +0.000 C 
ATOM      6  C   UNL     1       1.266   0.860  -0.290  1.00  0.00    +0.000 C 
ENDROOT
BRANCH   4   7
ATOM      7  O   UNL     1       0.754   3.491   1.138  1.00  0.00    +0.000 OA
ATOM      8  H   UNL     1       1.478   3.886   0.614  1.00  0.00    +0.000 HD
ENDBRANCH   4   7
BRANCH   5   9
ATOM      9  O   UNL     1       3.011   2.540   0.046  1.00  0.00    +0.000 OA
BRANCH   9  10
ATOM     10  C   UNL     1       4.407   2.233   0.133  1.00  0.00    +0.000 C 
ATOM     11  O   UNL     1       4.881   2.574   1.439  1.00  0.00    +0.000 OA
ATOM     12  C   UNL     1       5.331   3.922   1.595  1.00  0.00    +0.000 C 
ATOM     13  C   UNL     1       4.690   4.900   0.618  1.00  0.00    +0.000 C 
ATOM     14  C   UNL     1       5.027   4.496  -0.825  1.00  0.00    +0.000 C 
ATOM     15  C   UNL     1       5.152   2.972  -1.001  1.00  0.00    +0.000 C 
BRANCH  14  16
ATOM     16  O   UNL     1       4.026   5.063  -1.690  1.00  0.00    +0.000 OA
ATOM     17  H   UNL     1       3.289   4.424  -1.769  1.00  0.00    +0.000 HD
ENDBRANCH  14  16
BRANCH  13  18
ATOM     18  O   UNL     1       5.144   6.233   0.864  1.00  0.00    +0.000 OA
ATOM     19  H   UNL     1       4.768   6.780   0.146  1.00  0.00    +0.000 HD
ENDBRANCH  13  18
BRANCH  15  20
ATOM     20  O   UNL     1       6.561   2.635  -0.980  1.00  0.00    +0.000 OA
BRANCH  20  21
ATOM     21  C   UNL     1       6.871   1.416  -1.483  1.00  0.00    +0.000 C 
ATOM     22  O   UNL     1       6.065   0.611  -1.923  1.00  0.00    +0.000 OA
BRANCH  21  23
ATOM     23  C   UNL     1       8.336   1.171  -1.420  1.00  0.00    +0.000 A 
ATOM     24  C   UNL     1       9.235   2.109  -0.896  1.00  0.00    +0.000 A 
ATOM     25  C   UNL     1      10.608   1.830  -0.855  1.00  0.00    +0.000 A 
ATOM     26  C   UNL     1      11.093   0.614  -1.336  1.00  0.00    +0.000 A 
ATOM     27  C   UNL     1      10.195  -0.321  -1.856  1.00  0.00    +0.000 A 
ATOM     28  C   UNL     1       8.825  -0.048  -1.901  1.00  0.00    +0.000 A 
BRANCH  26  29
ATOM     29  O   UNL     1      12.402   0.219  -1.350  1.00  0.00    +0.000 OA
ATOM     30  C   UNL     1      13.366   1.164  -0.905  1.00  0.00    +0.000 C 
ENDBRANCH  26  29
ENDBRANCH  21  23
ENDBRANCH  20  21
ENDBRANCH  15  20
ENDBRANCH   9  10
ENDBRANCH   5   9
BRANCH   6  31
ATOM     31  O   UNL     1       2.045   0.111  -1.259  1.00  0.00    +0.000 OA
BRANCH  31  32
ATOM     32  C   UNL     1       2.410   0.766  -2.393  1.00  0.00    +0.000 C 
ATOM     33  C   UNL     1       3.099  -0.174  -3.333  1.00  0.00    +0.000 C 
ATOM     34  O   UNL     1       2.196   1.947  -2.632  1.00  0.00    +0.000 OA
ENDBRANCH  31  32
ENDBRANCH   6  31
BRANCH   1  35
ATOM     35  O   UNL     1      -0.971  -0.077  -0.064  1.00  0.00    +0.000 OA
BRANCH  35  36
ATOM     36  C   UNL     1      -1.653  -1.334  -0.032  1.00  0.00    +0.000 C 
ATOM     37  C   UNL     1      -2.018  -1.745   1.411  1.00  0.00    +0.000 C 
ATOM     38  C   UNL     1      -3.422  -2.313   1.293  1.00  0.00    +0.000 C 
ATOM     39  C   UNL     1      -4.209  -2.528   2.594  1.00  0.00    +0.000 C 
ATOM     40  C   UNL     1      -3.462  -3.493   3.527  1.00  0.00    +0.000 C 
ATOM     41  C   UNL     1      -4.308  -4.033   4.636  1.00  0.00    +0.000 C 
ATOM     42  C   UNL     1      -5.649  -3.945   4.686  1.00  0.00    +0.000 C 
ATOM     43  C   UNL     1      -6.405  -4.510   5.869  1.00  0.00    +0.000 C 
ATOM     44  C   UNL     1      -7.539  -5.438   5.432  1.00  0.00    +0.000 C 
ATOM     45  C   UNL     1      -8.460  -4.742   4.435  1.00  0.00    +0.000 C 
ATOM     46  C   UNL     1      -7.682  -4.229   3.224  1.00  0.00    +0.000 C 
ATOM     47  C   UNL     1      -6.485  -3.294   3.574  1.00  0.00    +0.000 C 
ATOM     48  C   UNL     1      -7.027  -1.946   4.109  1.00  0.00    +0.000 C 
ATOM     49  C   UNL     1      -5.620  -3.088   2.266  1.00  0.00    +0.000 C 
ATOM     50  C   UNL     1      -6.333  -2.269   1.161  1.00  0.00    +0.000 C 
ATOM     51  C   UNL     1      -5.458  -2.008  -0.077  1.00  0.00    +0.000 C 
ATOM     52  C   UNL     1      -4.108  -1.354   0.288  1.00  0.00    +0.000 C 
ATOM     53  C   UNL     1      -4.356   0.061   0.875  1.00  0.00    +0.000 C 
ATOM     54  C   UNL     1      -3.014  -1.303  -0.844  1.00  0.00    +0.000 C 
BRANCH  54  55
ATOM     55  C   UNL     1      -3.117  -0.133  -1.865  1.00  0.00    +0.000 C 
ATOM     56  C   UNL     1      -4.393  -0.158  -2.711  1.00  0.00    +0.000 C 
BRANCH  55  57
ATOM     57  C   UNL     1      -1.928  -0.139  -2.831  1.00  0.00    +0.000 C 
ATOM     58  O   UNL     1      -1.343  -1.187  -3.120  1.00  0.00    +0.000 OA
BRANCH  57  59
ATOM     59  C   UNL     1      -1.512   1.208  -3.409  1.00  0.00    +0.000 C 
BRANCH  59  60
ATOM     60  C   UNL     1      -0.658   1.056  -4.668  1.00  0.00    +0.000 C 
BRANCH  60  61
ATOM     61  C   UNL     1      -0.155   2.399  -5.228  1.00  0.00    +0.000 C 
ATOM     62  C   UNL     1      -1.295   3.268  -5.760  1.00  0.00    +0.000 C 
ATOM     63  C   UNL     1       0.868   2.150  -6.337  1.00  0.00    +0.000 C 
ENDBRANCH  60  61
ENDBRANCH  59  60
ENDBRANCH  57  59
ENDBRANCH  55  57
ENDBRANCH  54  55
BRANCH  54  64
ATOM     64  O   UNL     1      -3.099  -2.551  -1.573  1.00  0.00    +0.000 OA
ATOM     65  H   UNL     1      -2.398  -2.524  -2.260  1.00  0.00    +0.000 HD
ENDBRANCH  54  64
BRANCH  44  66
ATOM     66  O   UNL     1      -8.315  -5.830   6.562  1.00  0.00    +0.000 OA
ATOM     67  H   UNL     1      -7.719  -6.285   7.181  1.00  0.00    +0.000 HD
ENDBRANCH  44  66
ENDBRANCH  35  36
ENDBRANCH   1  35
TORSDOF 20
