REMARK  Name = /srv/my_project/app/compsite/backup/Dave/CORINA_stuff/newPDBs/SANC00488.pdb
AUTHORGENERATED BY OPEN BABEL 2.3.2
REMARK  15 active torsions:
REMARK  status: ('A' for Active; 'I' for Inactive)
REMARK    1  A    between atoms: C_1  and  C_2
REMARK    2  A    between atoms: C_8  and  O_9
REMARK    3  A    between atoms: C_18  and  C_19
REMARK    4  A    between atoms: C_30  and  C_31
REMARK    5  A    between atoms: C_30  and  C_32
REMARK    6  A    between atoms: C_32  and  O_33
REMARK    7  A    between atoms: C_35  and  O_36
REMARK    8  A    between atoms: C_37  and  C_38
REMARK    9  A    between atoms: C_39  and  O_40
REMARK   10  A    between atoms: C_41  and  C_42
REMARK   11  A    between atoms: C_43  and  O_44
REMARK   12  A    between atoms: C_52  and  C_53
REMARK   13  A    between atoms: C_63  and  C_64
REMARK   14  A    between atoms: C_63  and  C_65
REMARK   15  A    between atoms: C_67  and  O_68
REMARK                            x       y       z     vdW  Elec       q    Type
REMARK                         _______ _______ _______ _____ _____    ______ ____
ROOT
ATOM      1  C   UNL     1      12.229  -0.173  -0.513  1.00  0.00    +0.000 C 
ATOM      2  C   UNL     1      10.746   0.220  -0.619  1.00  0.00    +0.000 C 
ATOM      3  C   UNL     1       9.827  -1.007  -0.353  1.00  0.00    +0.000 C 
ATOM      4  C   UNL     1      10.020  -2.184  -1.338  1.00  0.00    +0.000 C 
ATOM      5  C   UNL     1       8.957  -2.030  -2.375  1.00  0.00    +0.000 C 
ATOM      6  O   UNL     1       8.812  -0.736  -2.961  1.00  0.00    +0.000 OA
ATOM      7  C   UNL     1       7.915  -1.073  -1.884  1.00  0.00    +0.000 C 
ATOM      8  C   UNL     1       6.447  -1.177  -2.254  1.00  0.00    +0.000 C 
ATOM      9  C   UNL     1       5.964   0.099  -2.969  1.00  0.00    +0.000 C 
ATOM     10  C   UNL     1       4.493   0.013  -3.379  1.00  0.00    +0.000 C 
ATOM     11  C   UNL     1       3.594  -0.267  -2.167  1.00  0.00    +0.000 C 
ATOM     12  C   UNL     1       2.118  -0.301  -2.594  1.00  0.00    +0.000 C 
ATOM     13  C   UNL     1       1.189  -0.648  -1.466  1.00  0.00    +0.000 A 
ATOM     14  N   UNL     1      -0.126  -0.379  -1.658  1.00  0.00    +0.000 NA
ATOM     15  C   UNL     1      -0.972  -0.733  -0.659  1.00  0.00    +0.000 A 
ATOM     16  C   UNL     1      -2.431  -0.401  -0.866  1.00  0.00    +0.000 C 
ATOM     17  C   UNL     1      -3.402  -1.194   0.054  1.00  0.00    +0.000 C 
ATOM     18  C   UNL     1      -3.442  -2.667  -0.442  1.00  0.00    +0.000 C 
ATOM     19  C   UNL     1      -2.807  -1.057   1.491  1.00  0.00    +0.000 C 
ATOM     20  C   UNL     1      -3.799  -1.499   2.561  1.00  0.00    +0.000 C 
ATOM     21  C   UNL     1      -5.053  -0.617   2.553  1.00  0.00    +0.000 C 
ATOM     22  C   UNL     1      -5.257   0.197   1.253  1.00  0.00    +0.000 C 
ATOM     23  C   UNL     1      -6.643   0.791   1.149  1.00  0.00    +0.000 C 
ATOM     24  C   UNL     1      -7.561   0.979   2.110  1.00  0.00    +0.000 C 
ATOM     25  C   UNL     1      -8.791   1.656   1.594  1.00  0.00    +0.000 C 
ATOM     26  O   UNL     1      -9.938   0.953   2.070  1.00  0.00    +0.000 OA
ATOM     27  C   UNL     1     -10.660   0.470   0.927  1.00  0.00    +0.000 C 
ATOM     28  O   UNL     1     -11.273  -0.786   1.263  1.00  0.00    +0.000 OA
ATOM     29  C   UNL     1     -12.570  -0.498   1.854  1.00  0.00    +0.000 C 
ATOM     30  C   UNL     1     -13.602  -1.302   1.058  1.00  0.00    +0.000 C 
ATOM     31  C   UNL     1     -12.807   1.011   1.724  1.00  0.00    +0.000 C 
ATOM     32  C   UNL     1     -11.852   1.400   0.616  1.00  0.00    +0.000 C 
ATOM     33  C   UNL     1      -9.595   0.261  -0.155  1.00  0.00    +0.000 C 
ATOM     34  C   UNL     1     -10.177   0.060  -1.552  1.00  0.00    +0.000 C 
ATOM     35  C   UNL     1      -8.683   1.479   0.056  1.00  0.00    +0.000 C 
ATOM     36  C   UNL     1      -7.133   1.348  -0.177  1.00  0.00    +0.000 C 
ATOM     37  C   UNL     1      -6.486   2.747  -0.371  1.00  0.00    +0.000 C 
ATOM     38  C   UNL     1      -6.767   0.399  -1.335  1.00  0.00    +0.000 C 
ATOM     39  C   UNL     1      -5.285   0.006  -1.314  1.00  0.00    +0.000 C 
ATOM     40  C   UNL     1      -4.898  -0.673   0.018  1.00  0.00    +0.000 C 
ATOM     41  C   UNL     1      -1.445  -1.749   1.618  1.00  0.00    +0.000 C 
ATOM     42  C   UNL     1      -0.507  -1.332   0.515  1.00  0.00    +0.000 A 
ATOM     43  N   UNL     1       0.807  -1.609   0.701  1.00  0.00    +0.000 NA
ATOM     44  C   UNL     1       1.649  -1.268  -0.305  1.00  0.00    +0.000 A 
ATOM     45  C   UNL     1       3.115  -1.533  -0.073  1.00  0.00    +0.000 C 
ATOM     46  C   UNL     1       3.998  -1.546  -1.365  1.00  0.00    +0.000 C 
ATOM     47  C   UNL     1       3.687  -2.863  -2.123  1.00  0.00    +0.000 C 
ATOM     48  C   UNL     1       5.526  -1.470  -1.064  1.00  0.00    +0.000 C 
ATOM     49  C   UNL     1       6.025  -1.611   0.181  1.00  0.00    +0.000 C 
ATOM     50  C   UNL     1       7.459  -1.384   0.518  1.00  0.00    +0.000 C 
ATOM     51  O   UNL     1       7.861  -1.768   1.612  1.00  0.00    +0.000 OA
ATOM     52  C   UNL     1       8.316  -0.624  -0.498  1.00  0.00    +0.000 C 
ATOM     53  C   UNL     1       8.108   0.879  -0.307  1.00  0.00    +0.000 C 
ATOM     54  O   UNL     1       8.970   1.389   0.698  1.00  0.00    +0.000 OA
ATOM     55  C   UNL     1      10.366   1.383   0.346  1.00  0.00    +0.000 C 
ATOM     56  O   UNL     1      11.089   1.223   1.581  1.00  0.00    +0.000 OA
ATOM     57  C   UNL     1      11.437   2.518   2.100  1.00  0.00    +0.000 C 
ATOM     58  C   UNL     1      12.963   2.586   2.192  1.00  0.00    +0.000 C 
ATOM     59  C   UNL     1      10.830   2.653   3.496  1.00  0.00    +0.000 C 
ATOM     60  C   UNL     1      10.871   3.567   1.137  1.00  0.00    +0.000 C 
ATOM     61  C   UNL     1      10.715   2.804  -0.164  1.00  0.00    +0.000 C 
ENDROOT
BRANCH   8  62
ATOM     62  O   UNL     1       6.309  -2.265  -3.168  1.00  0.00    +0.000 OA
ATOM     63  H   UNL     1       6.824  -2.031  -3.961  1.00  0.00    +0.000 HD
ENDBRANCH   8  62
BRANCH  32  64
ATOM     64  O   UNL     1     -11.600   2.796   0.638  1.00  0.00    +0.000 OA
ATOM     65  H   UNL     1     -10.807   2.960   0.085  1.00  0.00    +0.000 HD
ENDBRANCH  32  64
BRANCH  35  66
ATOM     66  O   UNL     1      -9.242   2.603  -0.638  1.00  0.00    +0.000 OA
ATOM     67  H   UNL     1      -8.893   2.559  -1.553  1.00  0.00    +0.000 HD
ENDBRANCH  35  66
BRANCH  38  68
ATOM     68  O   UNL     1      -7.095   1.016  -2.580  1.00  0.00    +0.000 OA
ATOM     69  H   UNL     1      -6.777   0.432  -3.292  1.00  0.00    +0.000 HD
ENDBRANCH  38  68
BRANCH  61  70
ATOM     70  O   UNL     1      11.916   2.890  -0.925  1.00  0.00    +0.000 OA
ATOM     71  H   UNL     1      12.078   3.830  -1.116  1.00  0.00    +0.000 HD
ENDBRANCH  61  70
BRANCH  29  72
ATOM     72  C   UNL     1     -12.531  -0.937   3.327  1.00  0.00    +0.000 C 
BRANCH  72  73
ATOM     73  O   UNL     1     -12.200  -2.323   3.426  1.00  0.00    +0.000 OA
ATOM     74  H   UNL     1     -11.418  -2.436   2.851  1.00  0.00    +0.000 HD
ENDBRANCH  72  73
ENDBRANCH  29  72
TORSDOF 7
