REMARK  Name = /srv/my_project/app/compsite/backup/Dave/CORINA_stuff/newPDBs/SANC00512.pdb
AUTHORGENERATED BY OPEN BABEL 2.3.2
REMARK  22 active torsions:
REMARK  status: ('A' for Active; 'I' for Inactive)
REMARK    1  A    between atoms: C_2  and  O_3
REMARK    2  A    between atoms: O_3  and  C_4
REMARK    3  A    between atoms: C_15  and  O_17
REMARK    4  A    between atoms: C_20  and  C_21
REMARK    5  A    between atoms: C_24  and  O_26
REMARK    6  A    between atoms: C_28  and  C_29
REMARK    7  A    between atoms: C_30  and  C_32
REMARK    8  A    between atoms: C_32  and  C_34
REMARK    9  A    between atoms: C_32  and  C_35
REMARK   10  A    between atoms: C_35  and  O_37
REMARK   11  A    between atoms: C_35  and  C_38
REMARK   12  A    between atoms: C_38  and  C_39
REMARK   13  A    between atoms: C_40  and  C_41
REMARK   14  A    between atoms: C_40  and  C_42
REMARK   15  A    between atoms: C_44  and  C_46
REMARK   16  A    between atoms: C_47  and  O_49
REMARK   17  A    between atoms: C_50  and  O_52
REMARK   18  A    between atoms: O_52  and  C_53
REMARK   19  A    between atoms: C_53  and  C_54
REMARK   20  A    between atoms: C_56  and  O_58
REMARK   21  A    between atoms: O_58  and  C_59
REMARK   22  A    between atoms: C_59  and  C_60
REMARK                            x       y       z     vdW  Elec       q    Type
REMARK                         _______ _______ _______ _____ _____    ______ ____
ROOT
ATOM      1  C   UNL     1      -1.005  -0.497   0.662  1.00  0.00    +0.000 C 
ATOM      2  C   UNL     1      -0.109  -1.510  -0.077  1.00  0.00    +0.000 C 
ATOM      3  C   UNL     1       1.233  -1.409   0.625  1.00  0.00    +0.000 C 
ATOM      4  C   UNL     1       2.452  -2.021  -0.079  1.00  0.00    +0.000 C 
ATOM      5  C   UNL     1       2.210  -3.508  -0.374  1.00  0.00    +0.000 C 
ATOM      6  C   UNL     1       3.446  -4.230  -0.796  1.00  0.00    +0.000 C 
ATOM      7  C   UNL     1       4.697  -3.773  -0.611  1.00  0.00    +0.000 C 
ATOM      8  C   UNL     1       5.876  -4.587  -1.124  1.00  0.00    +0.000 C 
ATOM      9  C   UNL     1       7.097  -4.575  -0.195  1.00  0.00    +0.000 C 
ATOM     10  C   UNL     1       6.731  -4.127   1.212  1.00  0.00    +0.000 C 
ATOM     11  C   UNL     1       6.093  -2.732   1.229  1.00  0.00    +0.000 C 
ATOM     12  C   UNL     1       5.012  -2.462   0.128  1.00  0.00    +0.000 C 
ATOM     13  C   UNL     1       5.582  -1.475  -0.923  1.00  0.00    +0.000 C 
ATOM     14  C   UNL     1       3.714  -1.845   0.813  1.00  0.00    +0.000 C 
ATOM     15  C   UNL     1       3.865  -0.368   1.285  1.00  0.00    +0.000 C 
ATOM     16  C   UNL     1       2.573   0.225   1.883  1.00  0.00    +0.000 C 
ATOM     17  C   UNL     1       1.372   0.101   0.929  1.00  0.00    +0.000 C 
ATOM     18  C   UNL     1       1.594   0.977  -0.327  1.00  0.00    +0.000 C 
ATOM     19  C   UNL     1      -0.038   0.370   1.555  1.00  0.00    +0.000 C 
ENDROOT
BRANCH   9  20
ATOM     20  O   UNL     1       8.102  -3.712  -0.730  1.00  0.00    +0.000 OA
ATOM     21  H   UNL     1       8.836  -3.688  -0.093  1.00  0.00    +0.000 HD
ENDBRANCH   9  20
BRANCH  15  22
ATOM     22  O   UNL     1       4.886  -0.267   2.276  1.00  0.00    +0.000 OA
ATOM     23  H   UNL     1       5.006   0.677   2.479  1.00  0.00    +0.000 HD
ENDBRANCH  15  22
BRANCH  19  24
ATOM     24  C   UNL     1      -0.512   1.843   1.775  1.00  0.00    +0.000 C 
ATOM     25  C   UNL     1       0.481   2.635   2.637  1.00  0.00    +0.000 C 
BRANCH  24  26
ATOM     26  C   UNL     1      -1.941   1.879   2.401  1.00  0.00    +0.000 C 
BRANCH  26  27
ATOM     27  O   UNL     1      -1.946   1.185   3.654  1.00  0.00    +0.000 OA
ATOM     28  H   UNL     1      -1.425   1.709   4.287  1.00  0.00    +0.000 HD
ENDBRANCH  26  27
BRANCH  26  29
ATOM     29  C   UNL     1      -2.553   3.284   2.607  1.00  0.00    +0.000 C 
BRANCH  29  30
ATOM     30  C   UNL     1      -2.559   4.128   1.362  1.00  0.00    +0.000 C 
ATOM     31  C   UNL     1      -2.156   5.405   1.217  1.00  0.00    +0.000 C 
ATOM     32  C   UNL     1      -2.228   6.077  -0.131  1.00  0.00    +0.000 C 
ATOM     33  C   UNL     1      -1.620   6.284   2.313  1.00  0.00    +0.000 C 
ENDBRANCH  29  30
ENDBRANCH  26  29
ENDBRANCH  24  26
ENDBRANCH  19  24
BRANCH   1  34
ATOM     34  O   UNL     1      -1.731   0.308  -0.270  1.00  0.00    +0.000 OA
BRANCH  34  35
ATOM     35  C   UNL     1      -2.867  -0.361  -0.842  1.00  0.00    +0.000 C 
ATOM     36  O   UNL     1      -2.452  -1.330  -1.810  1.00  0.00    +0.000 OA
ATOM     37  C   UNL     1      -2.264  -0.767  -3.108  1.00  0.00    +0.000 C 
ATOM     38  C   UNL     1      -1.570  -1.805  -3.983  1.00  0.00    +0.000 C 
ATOM     39  C   UNL     1      -3.624  -0.349  -3.709  1.00  0.00    +0.000 C 
ATOM     40  C   UNL     1      -4.606   0.124  -2.616  1.00  0.00    +0.000 C 
ATOM     41  C   UNL     1      -3.808   0.715  -1.441  1.00  0.00    +0.000 C 
BRANCH  39  42
ATOM     42  O   UNL     1      -3.415   0.664  -4.699  1.00  0.00    +0.000 OA
ATOM     43  H   UNL     1      -3.272   1.522  -4.261  1.00  0.00    +0.000 HD
ENDBRANCH  39  42
BRANCH  40  44
ATOM     44  O   UNL     1      -5.364  -1.032  -2.170  1.00  0.00    +0.000 OA
BRANCH  44  45
ATOM     45  C   UNL     1      -6.640  -0.814  -1.754  1.00  0.00    +0.000 C 
ATOM     46  C   UNL     1      -7.269  -2.109  -1.342  1.00  0.00    +0.000 C 
ATOM     47  O   UNL     1      -7.200   0.271  -1.709  1.00  0.00    +0.000 OA
ENDBRANCH  44  45
ENDBRANCH  40  44
BRANCH  41  48
ATOM     48  O   UNL     1      -4.682   1.216  -0.404  1.00  0.00    +0.000 OA
BRANCH  48  49
ATOM     49  C   UNL     1      -5.250   2.425  -0.673  1.00  0.00    +0.000 C 
ATOM     50  C   UNL     1      -6.203   2.807   0.417  1.00  0.00    +0.000 C 
ATOM     51  O   UNL     1      -5.000   3.110  -1.655  1.00  0.00    +0.000 OA
ENDBRANCH  48  49
ENDBRANCH  41  48
ENDBRANCH  34  35
ENDBRANCH   1  34
TORSDOF 14
