REMARK  Name = SANCDB_00891_minRM1.pdb
AUTHORGENERATED BY OPEN BABEL 2.3.2
REMARK  19 active torsions:
REMARK  status: ('A' for Active; 'I' for Inactive)
REMARK    1  A    between atoms: C_1  and  C_2
REMARK    2  A    between atoms: C_4  and  C_25
REMARK    3  A    between atoms: C_5  and  C_21
REMARK    4  A    between atoms: C_8  and  O_9
REMARK    5  A    between atoms: O_9  and  C_10
REMARK    6  A    between atoms: C_11  and  O_20
REMARK    7  A    between atoms: C_12  and  O_19
REMARK    8  A    between atoms: C_13  and  O_18
REMARK    9  A    between atoms: C_14  and  C_16
REMARK   10  A    between atoms: C_16  and  O_17
REMARK   11  A    between atoms: C_21  and  O_23
REMARK   12  A    between atoms: O_23  and  C_24
REMARK   13  A    between atoms: C_25  and  C_26
REMARK   14  A    between atoms: C_26  and  O_28
REMARK   15  A    between atoms: O_28  and  C_29
REMARK   16  A    between atoms: C_29  and  C_30
REMARK   17  A    between atoms: C_30  and  C_31
REMARK   18  A    between atoms: C_33  and  O_38
REMARK   19  A    between atoms: C_34  and  O_37
REMARK                            x       y       z     vdW  Elec       q    Type
REMARK                         _______ _______ _______ _____ _____    ______ ____
ROOT
ATOM      1  C   UNL     1      -2.209   0.598  -3.811  1.00  0.00    +0.000 C 
ATOM      2  C   UNL     1      -1.070   0.626  -2.842  1.00  0.00    +0.000 C 
ATOM      3  C   UNL     1      -0.698  -0.332  -1.961  1.00  0.00    +0.000 C 
ATOM      4  C   UNL     1      -1.439  -1.651  -1.756  1.00  0.00    +0.000 C 
ATOM      5  C   UNL     1      -0.667  -2.612  -0.878  1.00  0.00    +0.000 C 
ATOM      6  C   UNL     1       0.241  -2.157  -0.005  1.00  0.00    +0.000 C 
ATOM      7  O   UNL     1       0.609  -0.840   0.089  1.00  0.00    +0.000 OA
ATOM      8  C   UNL     1       0.586  -0.145  -1.169  1.00  0.00    +0.000 C 
ENDROOT
BRANCH   5   9
ATOM      9  C   UNL     1      -1.013  -4.053  -0.980  1.00  0.00    +0.000 C 
ATOM     10  O   UNL     1      -1.893  -4.473  -1.717  1.00  0.00    +0.000 OA
BRANCH   9  11
ATOM     11  O   UNL     1      -0.221  -4.813  -0.185  1.00  0.00    +0.000 OA
ATOM     12  C   UNL     1      -0.507  -6.211  -0.246  1.00  0.00    +0.000 C 
ENDBRANCH   9  11
ENDBRANCH   5   9
BRANCH   4  13
ATOM     13  C   UNL     1      -2.871  -1.450  -1.212  1.00  0.00    +0.000 C 
BRANCH  13  14
ATOM     14  C   UNL     1      -2.912  -1.048   0.241  1.00  0.00    +0.000 C 
ATOM     15  O   UNL     1      -3.156  -1.825   1.155  1.00  0.00    +0.000 OA
BRANCH  14  16
ATOM     16  O   UNL     1      -2.637   0.276   0.387  1.00  0.00    +0.000 OA
BRANCH  16  17
ATOM     17  C   UNL     1      -2.559   0.742   1.745  1.00  0.00    +0.000 C 
BRANCH  17  18
ATOM     18  C   UNL     1      -3.949   1.088   2.275  1.00  0.00    +0.000 C 
BRANCH  18  19
ATOM     19  C   UNL     1      -3.905   1.532   3.714  1.00  0.00    +0.000 A 
ATOM     20  C   UNL     1      -3.740   2.885   4.037  1.00  0.00    +0.000 A 
ATOM     21  C   UNL     1      -3.670   3.266   5.370  1.00  0.00    +0.000 A 
ATOM     22  C   UNL     1      -3.757   2.321   6.390  1.00  0.00    +0.000 A 
ATOM     23  C   UNL     1      -3.920   0.975   6.088  1.00  0.00    +0.000 A 
ATOM     24  C   UNL     1      -3.991   0.583   4.747  1.00  0.00    +0.000 A 
BRANCH  21  25
ATOM     25  O   UNL     1      -3.506   4.586   5.679  1.00  0.00    +0.000 OA
ATOM     26  H   UNL     1      -3.491   4.605   6.657  1.00  0.00    +0.000 HD
ENDBRANCH  21  25
BRANCH  22  27
ATOM     27  O   UNL     1      -3.670   2.767   7.680  1.00  0.00    +0.000 OA
ATOM     28  H   UNL     1      -3.711   1.993   8.267  1.00  0.00    +0.000 HD
ENDBRANCH  22  27
ENDBRANCH  18  19
ENDBRANCH  17  18
ENDBRANCH  16  17
ENDBRANCH  14  16
ENDBRANCH  13  14
ENDBRANCH   4  13
BRANCH   8  29
ATOM     29  O   UNL     1       1.656  -0.594  -2.006  1.00  0.00    +0.000 OA
BRANCH  29  30
ATOM     30  C   UNL     1       2.905  -0.028  -1.611  1.00  0.00    +0.000 C 
ATOM     31  C   UNL     1       3.998  -0.838  -2.333  1.00  0.00    +0.000 C 
ATOM     32  C   UNL     1       5.368  -0.230  -2.044  1.00  0.00    +0.000 C 
ATOM     33  C   UNL     1       5.369   1.260  -2.388  1.00  0.00    +0.000 C 
ATOM     34  C   UNL     1       4.214   1.957  -1.649  1.00  0.00    +0.000 C 
ATOM     35  O   UNL     1       2.962   1.346  -1.994  1.00  0.00    +0.000 OA
BRANCH  31  36
ATOM     36  O   UNL     1       4.002  -2.211  -1.910  1.00  0.00    +0.000 OA
ATOM     37  H   UNL     1       3.080  -2.518  -2.018  1.00  0.00    +0.000 HD
ENDBRANCH  31  36
BRANCH  32  38
ATOM     38  O   UNL     1       6.386  -0.888  -2.813  1.00  0.00    +0.000 OA
ATOM     39  H   UNL     1       6.223  -1.845  -2.688  1.00  0.00    +0.000 HD
ENDBRANCH  32  38
BRANCH  33  40
ATOM     40  O   UNL     1       6.633   1.833  -2.037  1.00  0.00    +0.000 OA
ATOM     41  H   UNL     1       7.301   1.204  -2.384  1.00  0.00    +0.000 HD
ENDBRANCH  33  40
BRANCH  34  42
ATOM     42  C   UNL     1       4.157   3.450  -2.000  1.00  0.00    +0.000 C 
BRANCH  42  43
ATOM     43  O   UNL     1       5.286   4.158  -1.500  1.00  0.00    +0.000 OA
ATOM     44  H   UNL     1       6.077   3.612  -1.697  1.00  0.00    +0.000 HD
ENDBRANCH  42  43
ENDBRANCH  34  42
ENDBRANCH  29  30
ENDBRANCH   8  29
TORSDOF 17
