REMARK  Name = /srv/my_project/app/compsite/backup/Dave/CORINA_stuff/newPDBs/SANC00341.pdb
AUTHORGENERATED BY OPEN BABEL 2.3.2
REMARK  11 active torsions:
REMARK  status: ('A' for Active; 'I' for Inactive)
REMARK    1  A    between atoms: C_9  and  C_10
REMARK    2  A    between atoms: C_13  and  O_15
REMARK    3  A    between atoms: O_15  and  C_16
REMARK    4  A    between atoms: C_16  and  C_18
REMARK    5  A    between atoms: C_18  and  C_20
REMARK    6  A    between atoms: C_20  and  O_21
REMARK    7  A    between atoms: C_22  and  C_24
REMARK    8  A    between atoms: C_24  and  C_26
REMARK    9  A    between atoms: C_26  and  O_28
REMARK   10  A    between atoms: O_28  and  C_29
REMARK   11  A    between atoms: C_30  and  O_32
REMARK                            x       y       z     vdW  Elec       q    Type
REMARK                         _______ _______ _______ _____ _____    ______ ____
ROOT
ATOM      1  C   UNL     1      -1.875  -1.548   0.407  1.00  0.00    +0.000 C 
ATOM      2  C   UNL     1      -2.671  -1.302  -0.863  1.00  0.00    +0.000 C 
ATOM      3  C   UNL     1      -3.097  -0.143  -1.392  1.00  0.00    +0.000 C 
ATOM      4  C   UNL     1      -3.078  -2.545  -1.576  1.00  0.00    +0.000 C 
ATOM      5  O   UNL     1      -4.170  -2.688  -2.104  1.00  0.00    +0.000 OA
ATOM      6  O   UNL     1      -2.126  -3.510  -1.564  1.00  0.00    +0.000 OA
ATOM      7  C   UNL     1      -0.781  -3.092  -1.292  1.00  0.00    +0.000 C 
ATOM      8  C   UNL     1      -0.639  -2.475   0.127  1.00  0.00    +0.000 C 
ATOM      9  C   UNL     1       0.703  -1.704   0.149  1.00  0.00    +0.000 C 
ATOM     10  C   UNL     1       0.533  -0.243  -0.280  1.00  0.00    +0.000 C 
ATOM     11  C   UNL     1      -0.254   0.500   0.816  1.00  0.00    +0.000 C 
ATOM     12  C   UNL     1      -1.532  -0.281   1.237  1.00  0.00    +0.000 C 
ENDROOT
BRANCH   8  13
ATOM     13  C   UNL     1      -0.570  -3.535   1.235  1.00  0.00    +0.000 C 
ATOM     14  C   UNL     1      -0.736  -4.861   1.131  1.00  0.00    +0.000 C 
ENDBRANCH   8  13
BRANCH  11  15
ATOM     15  C   UNL     1      -0.567   1.975   0.554  1.00  0.00    +0.000 C 
ATOM     16  C   UNL     1      -0.485   2.594  -0.638  1.00  0.00    +0.000 C 
BRANCH  15  17
ATOM     17  C   UNL     1      -0.964   2.731   1.789  1.00  0.00    +0.000 C 
ATOM     18  O   UNL     1      -1.134   2.180   2.869  1.00  0.00    +0.000 OA
BRANCH  17  19
ATOM     19  O   UNL     1      -1.107   4.057   1.550  1.00  0.00    +0.000 OA
ATOM     20  C   UNL     1      -1.487   4.820   2.696  1.00  0.00    +0.000 C 
ENDBRANCH  17  19
ENDBRANCH  15  17
ENDBRANCH  11  15
BRANCH  12  21
ATOM     21  O   UNL     1      -1.374  -0.664   2.615  1.00  0.00    +0.000 OA
ATOM     22  H   UNL     1      -1.346   0.171   3.131  1.00  0.00    +0.000 HD
ENDBRANCH  12  21
BRANCH  10  23
ATOM     23  O   UNL     1       1.842   0.358  -0.382  1.00  0.00    +0.000 OA
BRANCH  23  24
ATOM     24  C   UNL     1       2.466   0.207  -1.579  1.00  0.00    +0.000 C 
ATOM     25  O   UNL     1       2.015  -0.401  -2.537  1.00  0.00    +0.000 OA
BRANCH  24  26
ATOM     26  C   UNL     1       3.775   0.912  -1.584  1.00  0.00    +0.000 C 
ATOM     27  C   UNL     1       4.478   1.087  -0.451  1.00  0.00    +0.000 C 
BRANCH  26  28
ATOM     28  C   UNL     1       4.277   1.334  -2.928  1.00  0.00    +0.000 C 
BRANCH  28  29
ATOM     29  O   UNL     1       3.749   2.617  -3.247  1.00  0.00    +0.000 OA
ATOM     30  H   UNL     1       4.046   3.232  -2.555  1.00  0.00    +0.000 HD
ENDBRANCH  28  29
ENDBRANCH  26  28
ENDBRANCH  24  26
ENDBRANCH  23  24
ENDBRANCH  10  23
TORSDOF 10
