REMARK  Name = /srv/my_project/app/compsite/backup/Dave/CORINA_stuff/newPDBs/SANC00591.pdb
AUTHORGENERATED BY OPEN BABEL 2.3.2
REMARK  12 active torsions:
REMARK  status: ('A' for Active; 'I' for Inactive)
REMARK    1  A    between atoms: C_5  and  C_6
REMARK    2  A    between atoms: C_7  and  C_8
REMARK    3  A    between atoms: C_8  and  C_9
REMARK    4  A    between atoms: C_9  and  C_10
REMARK    5  A    between atoms: C_15  and  C_16
REMARK    6  A    between atoms: C_15  and  C_17
REMARK    7  A    between atoms: C_19  and  O_20
REMARK    8  A    between atoms: C_23  and  C_24
REMARK    9  A    between atoms: C_25  and  C_26
REMARK   10  A    between atoms: C_27  and  C_28
REMARK   11  A    between atoms: C_33  and  C_34
REMARK   12  A    between atoms: C_33  and  C_35
REMARK                            x       y       z     vdW  Elec       q    Type
REMARK                         _______ _______ _______ _____ _____    ______ ____
ROOT
ATOM      1  C   UNL     1      -1.358   0.092  -0.051  1.00  0.00    +0.000 C 
ENDROOT
BRANCH   1   2
ATOM      2  C   UNL     1      -2.633  -0.763  -0.376  1.00  0.00    +0.000 C 
ATOM      3  C   UNL     1      -3.321  -1.422   0.848  1.00  0.00    +0.000 C 
ATOM      4  C   UNL     1      -3.754  -0.472   1.952  1.00  0.00    +0.000 C 
ATOM      5  C   UNL     1      -3.954   0.943   1.480  1.00  0.00    +0.000 C 
ATOM      6  O   UNL     1      -3.808   1.866   2.286  1.00  0.00    +0.000 OA
ATOM      7  C   UNL     1      -4.426   1.167   0.031  1.00  0.00    +0.000 C 
ATOM      8  C   UNL     1      -4.162   2.651  -0.311  1.00  0.00    +0.000 C 
ATOM      9  C   UNL     1      -5.946   0.904   0.054  1.00  0.00    +0.000 C 
ATOM     10  C   UNL     1      -3.692   0.219  -0.957  1.00  0.00    +0.000 C 
ATOM     11  C   UNL     1      -3.972   0.243  -2.275  1.00  0.00    +0.000 C 
ATOM     12  C   UNL     1      -3.323  -0.674  -3.242  1.00  0.00    +0.000 C 
ATOM     13  O   UNL     1      -3.521  -0.497  -4.442  1.00  0.00    +0.000 OA
ATOM     14  C   UNL     1      -2.533  -1.809  -2.715  1.00  0.00    +0.000 C 
ATOM     15  C   UNL     1      -2.146  -2.807  -3.773  1.00  0.00    +0.000 C 
ATOM     16  C   UNL     1      -2.242  -1.877  -1.396  1.00  0.00    +0.000 C 
ATOM     17  C   UNL     1      -1.486  -3.093  -0.898  1.00  0.00    +0.000 C 
BRANCH  11  18
ATOM     18  O   UNL     1      -4.889   1.122  -2.823  1.00  0.00    +0.000 OA
ATOM     19  H   UNL     1      -4.847   0.962  -3.792  1.00  0.00    +0.000 HD
ENDBRANCH  11  18
ENDBRANCH   1   2
BRANCH   1  20
ATOM     20  C   UNL     1      -0.274  -0.547   0.838  1.00  0.00    +0.000 C 
BRANCH  20  26
ATOM     21  C   UNL     1       3.429   0.945   0.761  1.00  0.00    +0.000 C 
ATOM     22  C   UNL     1       2.996   2.395   0.909  1.00  0.00    +0.000 C 
ATOM     23  C   UNL     1       1.937   2.499   1.990  1.00  0.00    +0.000 C 
ATOM     24  C   UNL     1       0.840   1.464   1.869  1.00  0.00    +0.000 C 
ATOM     25  C   UNL     1      -0.354   1.815   2.725  1.00  0.00    +0.000 C 
ATOM     26  C   UNL     1       0.930   0.375   1.060  1.00  0.00    +0.000 C 
ATOM     27  C   UNL     1       2.247   0.032   0.283  1.00  0.00    +0.000 C 
ATOM     28  C   UNL     1       1.973   0.237  -1.227  1.00  0.00    +0.000 C 
ATOM     29  C   UNL     1       2.672  -1.456   0.535  1.00  0.00    +0.000 C 
ATOM     30  C   UNL     1       3.982  -1.914  -0.109  1.00  0.00    +0.000 C 
ATOM     31  C   UNL     1       5.191  -1.333   0.590  1.00  0.00    +0.000 C 
ATOM     32  O   UNL     1       5.794  -1.986   1.444  1.00  0.00    +0.000 OA
ATOM     33  C   UNL     1       5.617   0.088   0.177  1.00  0.00    +0.000 C 
ATOM     34  C   UNL     1       6.446   0.756   1.283  1.00  0.00    +0.000 C 
ATOM     35  C   UNL     1       6.483  -0.029  -1.083  1.00  0.00    +0.000 C 
ATOM     36  O   UNL     1       4.518   0.930  -0.171  1.00  0.00    +0.000 OA
ENDBRANCH  20  26
ENDBRANCH   1  20
TORSDOF 4
