REMARK  Name = SANCDB_00875_minRM1.pdb
AUTHORGENERATED BY OPEN BABEL 2.3.2
REMARK  2 active torsions:
REMARK  status: ('A' for Active; 'I' for Inactive)
REMARK    1  A    between atoms: C_1  and  C_2
REMARK    2  A    between atoms: C_3  and  O_18
REMARK                            x       y       z     vdW  Elec       q    Type
REMARK                         _______ _______ _______ _____ _____    ______ ____
ROOT
ATOM      1  C   UNL     1      -4.521   0.251  -0.041  1.00  0.00    +0.000 C 
ATOM      2  C   UNL     1      -3.075   0.078   0.331  1.00  0.00    +0.000 A 
ATOM      3  C   UNL     1      -2.055   0.406  -0.574  1.00  0.00    +0.000 A 
ATOM      4  C   UNL     1      -0.703   0.244  -0.227  1.00  0.00    +0.000 A 
ATOM      5  C   UNL     1      -0.374  -0.249   1.036  1.00  0.00    +0.000 A 
ATOM      6  C   UNL     1      -1.386  -0.579   1.946  1.00  0.00    +0.000 A 
ATOM      7  C   UNL     1      -2.727  -0.416   1.594  1.00  0.00    +0.000 A 
ATOM      8  C   UNL     1       1.038  -0.430   1.430  1.00  0.00    +0.000 C 
ATOM      9  O   UNL     1       1.322  -0.864   2.540  1.00  0.00    +0.000 OA
ATOM     10  C   UNL     1       2.104  -0.083   0.471  1.00  0.00    +0.000 A 
ATOM     11  C   UNL     1       3.447  -0.250   0.833  1.00  0.00    +0.000 A 
ATOM     12  C   UNL     1       4.460   0.077  -0.070  1.00  0.00    +0.000 A 
ATOM     13  C   UNL     1       4.136   0.571  -1.333  1.00  0.00    +0.000 A 
ATOM     14  C   UNL     1       2.799   0.738  -1.696  1.00  0.00    +0.000 A 
ATOM     15  C   UNL     1       1.781   0.410  -0.791  1.00  0.00    +0.000 A 
ATOM     16  C   UNL     1       0.370   0.589  -1.181  1.00  0.00    +0.000 C 
ATOM     17  O   UNL     1       0.078   1.024  -2.292  1.00  0.00    +0.000 OA
ENDROOT
BRANCH   3  18
ATOM     18  O   UNL     1      -2.440   0.886  -1.801  1.00  0.00    +0.000 OA
ATOM     19  H   UNL     1      -1.632   1.073  -2.330  1.00  0.00    +0.000 HD
ENDBRANCH   3  18
TORSDOF 1
