REMARK  Name = /srv/my_project/app/compsite/backup/Dave/CORINA_stuff/newPDBs/SANC00180.pdb
AUTHORGENERATED BY OPEN BABEL 2.3.2
REMARK  16 active torsions:
REMARK  status: ('A' for Active; 'I' for Inactive)
REMARK    1  A    between atoms: C_1  and  C_2
REMARK    2  A    between atoms: C_3  and  O_29
REMARK    3  A    between atoms: C_5  and  C_6
REMARK    4  A    between atoms: C_6  and  C_7
REMARK    5  A    between atoms: C_6  and  C_8
REMARK    6  A    between atoms: C_8  and  C_9
REMARK    7  A    between atoms: C_9  and  C_10
REMARK    8  A    between atoms: C_10  and  C_11
REMARK    9  A    between atoms: C_11  and  C_25
REMARK   10  A    between atoms: C_12  and  C_13
REMARK   11  A    between atoms: C_13  and  C_14
REMARK   12  A    between atoms: C_14  and  C_15
REMARK   13  A    between atoms: C_15  and  C_24
REMARK   14  A    between atoms: C_16  and  C_17
REMARK   15  A    between atoms: C_17  and  C_18
REMARK   16  A    between atoms: C_18  and  C_19
REMARK                            x       y       z     vdW  Elec       q    Type
REMARK                         _______ _______ _______ _____ _____    ______ ____
ROOT
ATOM      1  C   UNL     1      -1.936  -1.551  -1.060  1.00  0.00    +0.000 C 
ENDROOT
BRANCH   1   2
ATOM      2  C   UNL     1      -0.582  -1.792  -0.422  1.00  0.00    +0.000 C 
ATOM      3  C   UNL     1       0.535  -1.315  -1.006  1.00  0.00    +0.000 C 
ATOM      4  C   UNL     1      -0.610  -2.593   0.852  1.00  0.00    +0.000 C 
BRANCH   3   5
ATOM      5  C   UNL     1       1.960  -1.486  -0.550  1.00  0.00    +0.000 C 
BRANCH   5   6
ATOM      6  C   UNL     1       2.489  -0.208   0.117  1.00  0.00    +0.000 C 
BRANCH   6   7
ATOM      7  C   UNL     1       3.934  -0.205   0.605  1.00  0.00    +0.000 C 
ATOM      8  C   UNL     1       4.776  -1.250   0.467  1.00  0.00    +0.000 C 
ATOM      9  C   UNL     1       4.322   1.107   1.244  1.00  0.00    +0.000 C 
BRANCH   8  10
ATOM     10  C   UNL     1       6.207  -1.357   0.932  1.00  0.00    +0.000 C 
BRANCH  10  11
ATOM     11  C   UNL     1       7.219  -1.296  -0.219  1.00  0.00    +0.000 C 
BRANCH  11  12
ATOM     12  C   UNL     1       7.394   0.075  -0.786  1.00  0.00    +0.000 A 
ATOM     13  C   UNL     1       6.689   0.647  -1.826  1.00  0.00    +0.000 A 
ATOM     14  O   UNL     1       7.120   1.910  -2.067  1.00  0.00    +0.000 OA
ATOM     15  C   UNL     1       8.113   2.163  -1.178  1.00  0.00    +0.000 A 
ATOM     16  C   UNL     1       8.322   1.071  -0.369  1.00  0.00    +0.000 A 
ENDBRANCH  11  12
ENDBRANCH  10  11
ENDBRANCH   8  10
ENDBRANCH   6   7
ENDBRANCH   5   6
ENDBRANCH   3   5
ENDBRANCH   1   2
BRANCH   1  17
ATOM     17  C   UNL     1      -2.476  -0.123  -0.894  1.00  0.00    +0.000 C 
BRANCH  17  18
ATOM     18  C   UNL     1      -2.731   0.266   0.568  1.00  0.00    +0.000 C 
BRANCH  18  19
ATOM     19  C   UNL     1      -3.345   1.673   0.723  1.00  0.00    +0.000 C 
ATOM     20  C   UNL     1      -3.422   2.051   2.206  1.00  0.00    +0.000 C 
BRANCH  19  25
ATOM     21  C   UNL     1      -9.092   0.000  -1.230  1.00  0.00    +0.000 C 
ATOM     22  C   UNL     1      -7.729   0.269  -0.731  1.00  0.00    +0.000 C 
ATOM     23  C   UNL     1      -6.963   1.352  -0.721  1.00  0.00    +0.000 C 
ATOM     24  C   UNL     1      -5.707   1.070  -0.110  1.00  0.00    +0.000 C 
ATOM     25  C   UNL     1      -4.692   1.926   0.081  1.00  0.00    +0.000 C 
ATOM     26  O   UNL     1      -5.686  -0.256   0.292  1.00  0.00    +0.000 OA
ATOM     27  C   UNL     1      -6.905  -0.760  -0.082  1.00  0.00    +0.000 C 
ATOM     28  O   UNL     1      -7.268  -1.913   0.096  1.00  0.00    +0.000 OA
BRANCH  23  29
ATOM     29  O   UNL     1      -7.239   2.597  -1.200  1.00  0.00    +0.000 OA
ATOM     30  H   UNL     1      -8.134   2.598  -1.578  1.00  0.00    +0.000 HD
ENDBRANCH  23  29
ENDBRANCH  19  25
ENDBRANCH  18  19
ENDBRANCH  17  18
ENDBRANCH   1  17
TORSDOF 12
