REMARK  Name = /srv/my_project/app/compsite/backup/Dave/CORINA_stuff/newPDBs/SANC00355.pdb
AUTHORGENERATED BY OPEN BABEL 2.3.2
REMARK  11 active torsions:
REMARK  status: ('A' for Active; 'I' for Inactive)
REMARK    1  A    between atoms: C_2  and  C_3
REMARK    2  A    between atoms: C_2  and  C_4
REMARK    3  A    between atoms: C_4  and  O_5
REMARK    4  A    between atoms: C_4  and  C_6
REMARK    5  A    between atoms: C_6  and  C_7
REMARK    6  A    between atoms: C_8  and  O_9
REMARK    7  A    between atoms: C_14  and  C_15
REMARK    8  A    between atoms: C_20  and  C_21
REMARK    9  A    between atoms: C_20  and  C_22
REMARK   10  A    between atoms: C_26  and  O_27
REMARK   11  A    between atoms: C_31  and  O_32
REMARK                            x       y       z     vdW  Elec       q    Type
REMARK                         _______ _______ _______ _____ _____    ______ ____
ROOT
ATOM      1  C   UNL     1       4.227  -0.114   1.099  1.00  0.00    +0.000 A 
ATOM      2  C   UNL     1       4.460   1.206   1.514  1.00  0.00    +0.000 A 
ATOM      3  C   UNL     1       3.409   2.091   1.752  1.00  0.00    +0.000 A 
ATOM      4  C   UNL     1       2.095   1.661   1.578  1.00  0.00    +0.000 A 
ATOM      5  O   UNL     1       1.106   2.579   1.825  1.00  0.00    +0.000 OA
ATOM      6  C   UNL     1      -0.197   2.170   1.679  1.00  0.00    +0.000 A 
ATOM      7  C   UNL     1      -0.620   0.954   1.302  1.00  0.00    +0.000 A 
ATOM      8  C   UNL     1       0.427  -0.054   0.992  1.00  0.00    +0.000 A 
ATOM      9  O   UNL     1       0.170  -1.188   0.598  1.00  0.00    +0.000 OA
ATOM     10  C   UNL     1       1.832   0.357   1.168  1.00  0.00    +0.000 A 
ATOM     11  C   UNL     1       2.895  -0.527   0.927  1.00  0.00    +0.000 A 
ENDROOT
BRANCH   7  12
ATOM     12  C   UNL     1      -2.059   0.654   1.176  1.00  0.00    +0.000 A 
ATOM     13  C   UNL     1      -2.557   0.172  -0.046  1.00  0.00    +0.000 A 
ATOM     14  C   UNL     1      -3.918  -0.123  -0.205  1.00  0.00    +0.000 A 
ATOM     15  C   UNL     1      -4.424  -0.619  -1.473  1.00  0.00    +0.000 C 
ATOM     16  C   UNL     1      -5.727  -0.900  -1.558  1.00  0.00    +0.000 C 
ATOM     17  C   UNL     1      -6.692  -0.728  -0.408  1.00  0.00    +0.000 C 
ATOM     18  C   UNL     1      -7.811   0.233  -0.828  1.00  0.00    +0.000 C 
ATOM     19  C   UNL     1      -7.293  -2.090  -0.042  1.00  0.00    +0.000 C 
ATOM     20  O   UNL     1      -6.133  -0.187   0.808  1.00  0.00    +0.000 OA
ATOM     21  C   UNL     1      -4.792   0.063   0.866  1.00  0.00    +0.000 A 
ATOM     22  C   UNL     1      -4.315   0.536   2.089  1.00  0.00    +0.000 A 
ATOM     23  C   UNL     1      -2.958   0.824   2.240  1.00  0.00    +0.000 A 
BRANCH  23  24
ATOM     24  O   UNL     1      -2.498   1.274   3.449  1.00  0.00    +0.000 OA
ATOM     25  H   UNL     1      -3.222   1.231   4.096  1.00  0.00    +0.000 HD
ENDBRANCH  23  24
ENDBRANCH   7  12
BRANCH   2  26
ATOM     26  O   UNL     1       5.749   1.630   1.682  1.00  0.00    +0.000 OA
ATOM     27  H   UNL     1       5.754   2.558   1.965  1.00  0.00    +0.000 HD
ENDBRANCH   2  26
BRANCH  11  28
ATOM     28  O   UNL     1       2.678  -1.818   0.514  1.00  0.00    +0.000 OA
ATOM     29  H   UNL     1       1.707  -1.971   0.461  1.00  0.00    +0.000 HD
ENDBRANCH  11  28
BRANCH   1  30
ATOM     30  C   UNL     1       5.373  -1.068   0.838  1.00  0.00    +0.000 C 
BRANCH  30  31
ATOM     31  C   UNL     1       5.625  -1.392  -0.646  1.00  0.00    +0.000 C 
BRANCH  31  33
ATOM     32  C   UNL     1       7.387   0.181  -1.525  1.00  0.00    +0.000 C 
ATOM     33  C   UNL     1       6.101  -0.212  -1.479  1.00  0.00    +0.000 C 
ATOM     34  C   UNL     1       5.046   0.491  -2.288  1.00  0.00    +0.000 C 
ENDBRANCH  31  33
BRANCH  31  35
ATOM     35  O   UNL     1       6.620  -2.426  -0.708  1.00  0.00    +0.000 OA
ATOM     36  H   UNL     1       6.838  -2.534  -1.649  1.00  0.00    +0.000 HD
ENDBRANCH  31  35
ENDBRANCH  30  31
ENDBRANCH   1  30
TORSDOF 8
