REMARK  Name = /srv/my_project/app/compsite/backup/Dave/CORINA_stuff/newPDBs/SANC00646.pdb
AUTHORGENERATED BY OPEN BABEL 2.3.2
REMARK  3 active torsions:
REMARK  status: ('A' for Active; 'I' for Inactive)
REMARK    1  A    between atoms: C_1  and  N_2
REMARK    2  A    between atoms: C_10  and  O_14
REMARK    3  A    between atoms: O_14  and  C_15
REMARK                            x       y       z     vdW  Elec       q    Type
REMARK                         _______ _______ _______ _____ _____    ______ ____
ROOT
ATOM      1  C   UNL     1       2.620  -1.027   2.603  1.00  0.00    +0.000 C 
ATOM      2  N   UNL     1       1.290  -1.177   2.057  1.00  0.00    +0.000 NA
ATOM      3  C   UNL     1       1.107  -2.401   1.264  1.00  0.00    +0.000 C 
ATOM      4  C   UNL     1      -0.228  -2.118   0.603  1.00  0.00    +0.000 C 
ATOM      5  C   UNL     1      -0.054  -0.677   0.089  1.00  0.00    +0.000 C 
ATOM      6  C   UNL     1       0.648  -0.041   1.338  1.00  0.00    +0.000 C 
ATOM      7  C   UNL     1       1.496   1.191   0.984  1.00  0.00    +0.000 C 
ATOM      8  C   UNL     1       2.506   0.978  -0.145  1.00  0.00    +0.000 C 
ATOM      9  C   UNL     1       1.942   0.152  -1.259  1.00  0.00    +0.000 C 
ATOM     10  C   UNL     1       0.821  -0.580  -1.165  1.00  0.00    +0.000 C 
ATOM     11  C   UNL     1      -1.471  -0.273  -0.277  1.00  0.00    +0.000 A 
ATOM     12  C   UNL     1      -1.974   1.024  -0.104  1.00  0.00    +0.000 A 
ATOM     13  C   UNL     1      -3.272   1.269  -0.504  1.00  0.00    +0.000 A 
ATOM     14  C   UNL     1      -4.064   0.294  -1.066  1.00  0.00    +0.000 A 
ATOM     15  C   UNL     1      -3.610  -0.990  -1.265  1.00  0.00    +0.000 A 
ATOM     16  C   UNL     1      -2.299  -1.280  -0.864  1.00  0.00    +0.000 A 
ATOM     17  C   UNL     1      -1.772  -2.669  -1.093  1.00  0.00    +0.000 C 
ATOM     18  O   UNL     1      -2.340  -3.450  -1.844  1.00  0.00    +0.000 OA
ATOM     19  O   UNL     1      -0.621  -3.007  -0.437  1.00  0.00    +0.000 OA
ATOM     20  O   UNL     1      -5.302   0.755  -1.388  1.00  0.00    +0.000 OA
ATOM     21  C   UNL     1      -5.198   2.134  -0.974  1.00  0.00    +0.000 C 
ATOM     22  O   UNL     1      -3.914   2.464  -0.404  1.00  0.00    +0.000 OA
ENDROOT
BRANCH   8  23
ATOM     23  O   UNL     1       2.841   2.273  -0.655  1.00  0.00    +0.000 OA
ATOM     24  C   UNL     1       4.188   2.368  -1.099  1.00  0.00    +0.000 C 
ENDBRANCH   8  23
TORSDOF 1
