REMARK  Name = SANCDB01128.pdb
REMARK  38 active torsions:
REMARK  status: ('A' for Active; 'I' for Inactive)
REMARK    1  A    between atoms: C_4  and  C_5
REMARK    2  A    between atoms: C_5  and  C_6
REMARK    3  A    between atoms: C_5  and  C_7
REMARK    4  A    between atoms: C_7  and  C_8
REMARK    5  A    between atoms: C_8  and  C_9
REMARK    6  A    between atoms: C_9  and  C_10
REMARK    7  A    between atoms: C_9  and  C_12
REMARK    8  A    between atoms: C_10  and  C_11
REMARK    9  A    between atoms: C_12  and  C_13
REMARK   10  A    between atoms: C_12  and  C_14
REMARK   11  A    between atoms: C_15  and  C_16
REMARK   12  A    between atoms: C_25  and  O_30
REMARK   13  A    between atoms: C_28  and  C_29
REMARK   14  A    between atoms: O_30  and  C_31
REMARK   15  A    between atoms: C_33  and  C_34
REMARK   16  A    between atoms: C_34  and  O_35
REMARK   17  A    between atoms: O_35  and  C_36
REMARK   18  A    between atoms: C_36  and  C_38
REMARK   19  A    between atoms: C_38  and  C_39
REMARK   20  A    between atoms: C_39  and  C_40
REMARK   21  A    between atoms: C_40  and  C_41
REMARK   22  A    between atoms: C_41  and  C_42
REMARK   23  A    between atoms: C_42  and  C_43
REMARK   24  A    between atoms: C_43  and  C_44
REMARK   25  A    between atoms: C_44  and  C_45
REMARK   26  A    between atoms: C_45  and  C_46
REMARK   27  A    between atoms: C_46  and  C_47
REMARK   28  A    between atoms: C_47  and  C_48
REMARK   29  A    between atoms: C_48  and  C_49
REMARK   30  A    between atoms: C_49  and  C_50
REMARK   31  A    between atoms: C_50  and  C_51
REMARK   32  A    between atoms: C_51  and  C_52
REMARK   33  A    between atoms: C_52  and  C_53
REMARK   34  A    between atoms: C_53  and  C_54
REMARK   35  A    between atoms: C_54  and  C_55
REMARK   36  A    between atoms: C_56  and  O_57
REMARK   37  A    between atoms: C_58  and  O_59
REMARK   38  A    between atoms: C_60  and  O_61
REMARK                            x       y       z     vdW  Elec       q    Type
REMARK                         _______ _______ _______ _____ _____    ______ ____
ROOT
ATOM      1  C   UNL     1       0.025  -1.022   3.155  1.00  0.00    +0.000 C 
ATOM      2  O   UNL     1       0.815   0.156   2.979  1.00  0.00    +0.000 OA
ATOM      3  C   UNL     1       1.979   0.170   3.823  1.00  0.00    +0.000 C 
ATOM      4  C   UNL     1       2.776  -1.151   3.712  1.00  0.00    +0.000 C 
ATOM      5  C   UNL     1       2.296  -2.001   2.520  1.00  0.00    +0.000 C 
ATOM      6  C   UNL     1       0.783  -2.275   2.643  1.00  0.00    +0.000 C 
ENDROOT
BRANCH   6   7
ATOM      7  O   UNL     1       0.560  -3.371   3.555  1.00  0.00    +0.000 OA
ATOM      8  H   UNL     1       1.130  -3.205   4.334  1.00  0.00    +0.000 HD
ENDBRANCH   6   7
BRANCH   5   9
ATOM      9  O   UNL     1       2.621  -1.372   1.280  1.00  0.00    +0.000 OA
ATOM     10  H   UNL     1       2.059  -0.576   1.199  1.00  0.00    +0.000 HD
ENDBRANCH   5   9
BRANCH   4  11
ATOM     11  O   UNL     1       2.547  -1.921   4.911  1.00  0.00    +0.000 OA
ATOM     12  H   UNL     1       3.197  -1.620   5.574  1.00  0.00    +0.000 HD
ENDBRANCH   4  11
BRANCH   3  13
ATOM     13  C   UNL     1       2.813   1.398   3.427  1.00  0.00    +0.000 C 
BRANCH  13  14
ATOM     14  O   UNL     1       3.306   1.239   2.090  1.00  0.00    +0.000 OA
BRANCH  14  15
ATOM     15  C   UNL     1       4.010   2.302   1.615  1.00  0.00    +0.000 C 
ATOM     16  O   UNL     1       4.230   3.331   2.238  1.00  0.00    +0.000 OA
BRANCH  15  17
ATOM     17  C   UNL     1       4.470   2.032   0.203  1.00  0.00    +0.000 C 
BRANCH  17  18
ATOM     18  C   UNL     1       5.941   2.386  -0.006  1.00  0.00    +0.000 C 
BRANCH  18  19
ATOM     19  C   UNL     1       6.928   1.609   0.875  1.00  0.00    +0.000 C 
BRANCH  19  20
ATOM     20  C   UNL     1       6.841   0.086   0.783  1.00  0.00    +0.000 C 
BRANCH  20  21
ATOM     21  C   UNL     1       7.104  -0.527  -0.598  1.00  0.00    +0.000 C 
BRANCH  21  22
ATOM     22  C   UNL     1       8.555  -0.400  -1.079  1.00  0.00    +0.000 C 
BRANCH  22  23
ATOM     23  C   UNL     1       8.764   0.750  -2.068  1.00  0.00    +0.000 C 
BRANCH  23  24
ATOM     24  C   UNL     1      10.232   0.960  -2.454  1.00  0.00    +0.000 C 
BRANCH  24  25
ATOM     25  C   UNL     1      10.841  -0.219  -3.218  1.00  0.00    +0.000 C 
BRANCH  25  26
ATOM     26  C   UNL     1      12.272   0.052  -3.697  1.00  0.00    +0.000 C 
BRANCH  26  27
ATOM     27  C   UNL     1      13.376  -0.488  -2.778  1.00  0.00    +0.000 C 
BRANCH  27  28
ATOM     28  C   UNL     1      13.378   0.124  -1.377  1.00  0.00    +0.000 C 
BRANCH  28  29
ATOM     29  C   UNL     1      14.589  -0.284  -0.537  1.00  0.00    +0.000 C 
BRANCH  29  30
ATOM     30  C   UNL     1      15.960   0.199  -1.027  1.00  0.00    +0.000 C 
BRANCH  30  31
ATOM     31  C   UNL     1      16.122   1.723  -1.079  1.00  0.00    +0.000 C 
BRANCH  31  32
ATOM     32  C   UNL     1      15.878   2.309  -2.473  1.00  0.00    +0.000 C 
BRANCH  32  33
ATOM     33  C   UNL     1      16.228   3.797  -2.574  1.00  0.00    +0.000 C 
ATOM     34  C   UNL     1      15.351   4.689  -1.709  1.00  0.00    +0.000 C 
ENDBRANCH  32  33
ENDBRANCH  31  32
ENDBRANCH  30  31
ENDBRANCH  29  30
ENDBRANCH  28  29
ENDBRANCH  27  28
ENDBRANCH  26  27
ENDBRANCH  25  26
ENDBRANCH  24  25
ENDBRANCH  23  24
ENDBRANCH  22  23
ENDBRANCH  21  22
ENDBRANCH  20  21
ENDBRANCH  19  20
ENDBRANCH  18  19
ENDBRANCH  17  18
ENDBRANCH  15  17
ENDBRANCH  14  15
ENDBRANCH  13  14
ENDBRANCH   3  13
BRANCH   1  35
ATOM     35  O   UNL     1      -1.179  -0.874   2.398  1.00  0.00    +0.000 OA
BRANCH  35  50
ATOM     36  C   UNL     1      -8.238  -2.352   1.391  1.00  0.00    +0.000 C 
ATOM     37  C   UNL     1      -8.913  -3.705   1.510  1.00  0.00    +0.000 C 
ATOM     38  C   UNL     1     -10.321  -3.397   1.007  1.00  0.00    +0.000 C 
ATOM     39  C   UNL     1     -10.218  -2.209  -0.010  1.00  0.00    +0.000 C 
ATOM     40  C   UNL     1      -8.683  -1.852  -0.004  1.00  0.00    +0.000 C 
ATOM     41  C   UNL     1      -8.037  -2.643  -1.179  1.00  0.00    +0.000 C 
ATOM     42  C   UNL     1      -8.242  -0.386  -0.104  1.00  0.00    +0.000 C 
ATOM     43  C   UNL     1      -6.729  -0.203   0.117  1.00  0.00    +0.000 C 
ATOM     44  C   UNL     1      -6.217  -0.834   1.435  1.00  0.00    +0.000 C 
ATOM     45  C   UNL     1      -6.722  -2.295   1.619  1.00  0.00    +0.000 C 
ATOM     46  C   UNL     1      -6.344  -2.837   3.009  1.00  0.00    +0.000 C 
ATOM     47  C   UNL     1      -5.067  -2.295   3.577  1.00  0.00    +0.000 C 
ATOM     48  C   UNL     1      -4.306  -1.344   3.001  1.00  0.00    +0.000 C 
ATOM     49  C   UNL     1      -3.162  -0.736   3.791  1.00  0.00    +0.000 C 
ATOM     50  C   UNL     1      -2.111   0.043   2.987  1.00  0.00    +0.000 C 
ATOM     51  C   UNL     1      -2.697   0.922   1.876  1.00  0.00    +0.000 C 
ATOM     52  C   UNL     1      -4.199   0.735   1.637  1.00  0.00    +0.000 C 
ATOM     53  C   UNL     1      -4.655  -0.745   1.638  1.00  0.00    +0.000 C 
ATOM     54  C   UNL     1      -3.904  -1.524   0.529  1.00  0.00    +0.000 C 
BRANCH  39  55
ATOM     55  C   UNL     1     -11.276  -1.099   0.290  1.00  0.00    +0.000 C 
ATOM     56  C   UNL     1     -12.694  -1.701   0.410  1.00  0.00    +0.000 C 
BRANCH  55  57
ATOM     57  C   UNL     1     -11.348   0.066  -0.734  1.00  0.00    +0.000 C 
BRANCH  57  58
ATOM     58  C   UNL     1     -11.395  -0.356  -2.206  1.00  0.00    +0.000 C 
BRANCH  58  59
ATOM     59  C   UNL     1     -11.757   0.753  -3.231  1.00  0.00    +0.000 C 
BRANCH  59  60
ATOM     60  C   UNL     1     -13.182   1.361  -3.057  1.00  0.00    +0.000 C 
ATOM     61  C   UNL     1     -13.559   2.262  -4.243  1.00  0.00    +0.000 C 
ATOM     62  C   UNL     1     -14.267   0.286  -2.912  1.00  0.00    +0.000 C 
ENDBRANCH  59  60
BRANCH  59  63
ATOM     63  C   UNL     1     -10.627   1.805  -3.379  1.00  0.00    +0.000 C 
ATOM     64  C   UNL     1     -10.635   2.980  -2.409  1.00  0.00    +0.000 C 
ENDBRANCH  59  63
ENDBRANCH  58  59
ENDBRANCH  57  58
ENDBRANCH  55  57
ENDBRANCH  39  55
ENDBRANCH  35  50
ENDBRANCH   1  35
TORSDOF 31
