REMARK  Name = SANCDB_00926_minRM1.pdb
AUTHORGENERATED BY OPEN BABEL 2.3.2
REMARK  3 active torsions:
REMARK  status: ('A' for Active; 'I' for Inactive)
REMARK    1  A    between atoms: C_1  and  C_2
REMARK    2  A    between atoms: C_8  and  C_9
REMARK    3  A    between atoms: C_8  and  C_10
REMARK                            x       y       z     vdW  Elec       q    Type
REMARK                         _______ _______ _______ _____ _____    ______ ____
ROOT
ATOM      1  C   UNL     1       2.643  -1.112  -0.486  1.00  0.00    +0.000 C 
ATOM      2  C   UNL     1       1.517  -0.155  -0.283  1.00  0.00    +0.000 C 
ATOM      3  C   UNL     1       1.381   1.033  -0.906  1.00  0.00    +0.000 C 
ATOM      4  C   UNL     1       0.180   1.917  -0.638  1.00  0.00    +0.000 C 
ATOM      5  C   UNL     1      -0.737   1.230   0.397  1.00  0.00    +0.000 C 
ATOM      6  C   UNL     1       0.115   0.736   1.614  1.00  0.00    +0.000 C 
ATOM      7  C   UNL     1       0.428  -0.505   0.700  1.00  0.00    +0.000 C 
ATOM      8  C   UNL     1      -1.047  -0.307   0.126  1.00  0.00    +0.000 C 
ATOM      9  C   UNL     1      -1.319  -0.727  -1.325  1.00  0.00    +0.000 C 
ATOM     10  C   UNL     1      -2.166  -0.912   0.997  1.00  0.00    +0.000 C 
ENDROOT
TORSDOF 0
