REMARK  Name = /srv/my_project/app/compsite/backup/Dave/CORINA_stuff/newPDBs/SANC00383.pdb
AUTHORGENERATED BY OPEN BABEL 2.3.2
REMARK  8 active torsions:
REMARK  status: ('A' for Active; 'I' for Inactive)
REMARK    1  A    between atoms: C_12  and  O_13
REMARK    2  A    between atoms: O_13  and  C_14
REMARK    3  A    between atoms: C_15  and  O_16
REMARK    4  A    between atoms: O_16  and  C_17
REMARK    5  A    between atoms: N_22  and  C_23
REMARK    6  A    between atoms: C_38  and  O_39
REMARK    7  A    between atoms: O_39  and  C_40
REMARK    8  A    between atoms: N_45  and  C_46
REMARK                            x       y       z     vdW  Elec       q    Type
REMARK                         _______ _______ _______ _____ _____    ______ ____
ROOT
ATOM      1  C   UNL     1      -4.056  -1.825   0.272  1.00  0.00    +0.000 C 
ATOM      2  C   UNL     1      -2.675  -2.267   0.839  1.00  0.00    +0.000 C 
ATOM      3  C   UNL     1      -1.404  -1.883   0.095  1.00  0.00    +0.000 A 
ATOM      4  C   UNL     1      -0.177  -2.201   0.703  1.00  0.00    +0.000 A 
ATOM      5  C   UNL     1       1.030  -1.711   0.195  1.00  0.00    +0.000 A 
ATOM      6  C   UNL     1       1.033  -0.920  -0.952  1.00  0.00    +0.000 A 
ATOM      7  C   UNL     1      -0.169  -0.695  -1.625  1.00  0.00    +0.000 A 
ATOM      8  C   UNL     1      -1.377  -1.181  -1.115  1.00  0.00    +0.000 A 
ATOM      9  O   UNL     1       2.124  -0.258  -1.472  1.00  0.00    +0.000 OA
ATOM     10  C   UNL     1       3.378  -0.509  -0.954  1.00  0.00    +0.000 A 
ATOM     11  C   UNL     1       4.010  -1.746  -1.209  1.00  0.00    +0.000 A 
ATOM     12  C   UNL     1       5.329  -1.969  -0.780  1.00  0.00    +0.000 A 
ATOM     13  C   UNL     1       6.000  -0.943  -0.110  1.00  0.00    +0.000 A 
ATOM     14  C   UNL     1       5.395   0.311   0.101  1.00  0.00    +0.000 A 
ATOM     15  C   UNL     1       6.250   1.435   0.646  1.00  0.00    +0.000 C 
ATOM     16  C   UNL     1       5.585   2.820   0.678  1.00  0.00    +0.000 C 
ATOM     17  N   UNL     1       4.503   2.942  -0.302  1.00  0.00    +0.000 NA
ATOM     18  C   UNL     1       3.985   4.303  -0.384  1.00  0.00    +0.000 C 
ATOM     19  C   UNL     1       3.444   1.920  -0.062  1.00  0.00    +0.000 C 
ATOM     20  C   UNL     1       2.802   2.022   1.366  1.00  0.00    +0.000 C 
ATOM     21  C   UNL     1       1.322   1.736   1.468  1.00  0.00    +0.000 A 
ATOM     22  C   UNL     1       0.844   0.820   2.406  1.00  0.00    +0.000 A 
ATOM     23  C   UNL     1      -0.519   0.521   2.461  1.00  0.00    +0.000 A 
ATOM     24  C   UNL     1      -1.430   1.124   1.585  1.00  0.00    +0.000 A 
ATOM     25  O   UNL     1      -2.685   0.555   1.623  1.00  0.00    +0.000 OA
ATOM     26  C   UNL     1      -3.620   0.768   0.636  1.00  0.00    +0.000 A 
ATOM     27  C   UNL     1      -3.978   2.072   0.247  1.00  0.00    +0.000 A 
ATOM     28  O   UNL     1      -3.189   3.141   0.599  1.00  0.00    +0.000 OA
ATOM     29  C   UNL     1      -1.930   2.991  -0.060  1.00  0.00    +0.000 C 
ATOM     30  C   UNL     1      -0.991   2.163   0.764  1.00  0.00    +0.000 A 
ATOM     31  C   UNL     1       0.390   2.439   0.692  1.00  0.00    +0.000 A 
ATOM     32  C   UNL     1      -5.121   2.338  -0.523  1.00  0.00    +0.000 A 
ATOM     33  C   UNL     1      -5.921   1.273  -0.918  1.00  0.00    +0.000 A 
ATOM     34  C   UNL     1      -5.557  -0.036  -0.577  1.00  0.00    +0.000 A 
ATOM     35  C   UNL     1      -6.431  -1.199  -0.976  1.00  0.00    +0.000 C 
ATOM     36  C   UNL     1      -6.463  -2.293   0.114  1.00  0.00    +0.000 C 
ATOM     37  N   UNL     1      -5.238  -2.446   0.930  1.00  0.00    +0.000 NA
ATOM     38  C   UNL     1      -5.086  -3.824   1.373  1.00  0.00    +0.000 C 
ATOM     39  C   UNL     1      -4.366  -0.319   0.146  1.00  0.00    +0.000 A 
ATOM     40  C   UNL     1       4.062   0.537  -0.301  1.00  0.00    +0.000 A 
ENDROOT
BRANCH  11  41
ATOM     41  O   UNL     1       3.315  -2.650  -1.982  1.00  0.00    +0.000 OA
ATOM     42  C   UNL     1       3.230  -3.956  -1.419  1.00  0.00    +0.000 C 
ENDBRANCH  11  41
BRANCH  12  43
ATOM     43  O   UNL     1       5.893  -3.181  -1.083  1.00  0.00    +0.000 OA
ATOM     44  C   UNL     1       7.288  -3.337  -0.862  1.00  0.00    +0.000 C 
ENDBRANCH  12  43
BRANCH  32  45
ATOM     45  O   UNL     1      -5.347   3.652  -0.841  1.00  0.00    +0.000 OA
ATOM     46  C   UNL     1      -6.576   3.967  -1.480  1.00  0.00    +0.000 C 
ENDBRANCH  32  45
TORSDOF 3
