REMARK  Name = SANCDB_00889_minRM1.pdb
AUTHORGENERATED BY OPEN BABEL 2.3.2
REMARK  11 active torsions:
REMARK  status: ('A' for Active; 'I' for Inactive)
REMARK    1  A    between atoms: C_1  and  C_2
REMARK    2  A    between atoms: C_2  and  C_3
REMARK    3  A    between atoms: C_2  and  C_4
REMARK    4  A    between atoms: C_4  and  C_6
REMARK    5  A    between atoms: C_7  and  O_19
REMARK    6  A    between atoms: C_9  and  O_18
REMARK    7  A    between atoms: C_10  and  C_13
REMARK    8  A    between atoms: C_11  and  O_12
REMARK    9  A    between atoms: C_13  and  C_14
REMARK   10  A    between atoms: C_15  and  C_16
REMARK   11  A    between atoms: C_15  and  C_17
REMARK                            x       y       z     vdW  Elec       q    Type
REMARK                         _______ _______ _______ _____ _____    ______ ____
ROOT
ATOM      1  C   UNL     1      -1.549  -0.234   0.207  1.00  0.00    +0.000 A 
ATOM      2  C   UNL     1      -1.354  -1.449   0.871  1.00  0.00    +0.000 A 
ATOM      3  C   UNL     1      -0.096  -2.049   0.887  1.00  0.00    +0.000 A 
ATOM      4  C   UNL     1       0.981  -1.431   0.251  1.00  0.00    +0.000 A 
ATOM      5  C   UNL     1       0.834  -0.212  -0.423  1.00  0.00    +0.000 A 
ATOM      6  C   UNL     1      -0.440   0.388  -0.410  1.00  0.00    +0.000 A 
ENDROOT
BRANCH   1   7
ATOM      7  C   UNL     1      -2.874   0.445   0.128  1.00  0.00    +0.000 C 
ATOM      8  O   UNL     1      -2.879   1.680   0.089  1.00  0.00    +0.000 OA
BRANCH   7  10
ATOM      9  C   UNL     1      -5.004  -0.188   1.259  1.00  0.00    +0.000 C 
ATOM     10  C   UNL     1      -4.159  -0.364   0.002  1.00  0.00    +0.000 C 
ATOM     11  C   UNL     1      -4.930   0.104  -1.234  1.00  0.00    +0.000 C 
ENDBRANCH   7  10
ENDBRANCH   1   7
BRANCH   6  12
ATOM     12  O   UNL     1      -0.561   1.613  -1.026  1.00  0.00    +0.000 OA
ATOM     13  H   UNL     1      -1.413   2.017  -0.739  1.00  0.00    +0.000 HD
ENDBRANCH   6  12
BRANCH   4  14
ATOM     14  O   UNL     1       2.176  -2.088   0.346  1.00  0.00    +0.000 OA
ATOM     15  H   UNL     1       2.893  -1.453   0.175  1.00  0.00    +0.000 HD
ENDBRANCH   4  14
BRANCH   2  16
ATOM     16  O   UNL     1      -2.374  -2.052   1.552  1.00  0.00    +0.000 OA
ATOM     17  H   UNL     1      -2.039  -2.852   1.994  1.00  0.00    +0.000 HD
ENDBRANCH   2  16
BRANCH   5  18
ATOM     18  C   UNL     1       1.993   0.447  -1.142  1.00  0.00    +0.000 C 
BRANCH  18  19
ATOM     19  C   UNL     1       2.937   1.137  -0.192  1.00  0.00    +0.000 C 
ATOM     20  C   UNL     1       4.266   0.961  -0.050  1.00  0.00    +0.000 C 
ATOM     21  C   UNL     1       5.034   1.761   0.973  1.00  0.00    +0.000 C 
ATOM     22  C   UNL     1       5.118   0.018  -0.854  1.00  0.00    +0.000 C 
ENDBRANCH  18  19
ENDBRANCH   5  18
TORSDOF 7
