REMARK  Name = SANCDB_01071_minRM1.pdb
AUTHORGENERATED BY OPEN BABEL 2.3.2
REMARK  5 active torsions:
REMARK  status: ('A' for Active; 'I' for Inactive)
REMARK    1  A    between atoms: C_1  and  C_2
REMARK    2  A    between atoms: C_2  and  C_3
REMARK    3  A    between atoms: C_2  and  N_11
REMARK    4  A    between atoms: C_3  and  C_4
REMARK    5  A    between atoms: C_3  and  O_10
REMARK                            x       y       z     vdW  Elec       q    Type
REMARK                         _______ _______ _______ _____ _____    ______ ____
ROOT
ATOM      1  C   UNL     1      -0.688  -0.310   0.835  1.00  0.00    +0.000 C 
ENDROOT
BRANCH   1   2
ATOM      2  C   UNL     1       0.648  -0.254   0.124  1.00  0.00    +0.000 A 
ATOM      3  C   UNL     1       1.622   0.674   0.520  1.00  0.00    +0.000 A 
ATOM      4  C   UNL     1       2.857   0.729  -0.130  1.00  0.00    +0.000 A 
ATOM      5  C   UNL     1       3.132  -0.144  -1.181  1.00  0.00    +0.000 A 
ATOM      6  C   UNL     1       2.175  -1.073  -1.583  1.00  0.00    +0.000 A 
ATOM      7  C   UNL     1       0.941  -1.129  -0.934  1.00  0.00    +0.000 A 
ENDBRANCH   1   2
BRANCH   1   9
ATOM      8  C   UNL     1      -1.881   1.520  -0.504  1.00  0.00    +0.000 C 
ATOM      9  C   UNL     1      -1.906   0.058  -0.066  1.00  0.00    +0.000 C 
BRANCH   9  10
ATOM     10  N   UNL     1      -3.183  -0.210   0.632  1.00  0.00    +0.000 NA
ATOM     11  H   UNL     1      -3.112  -1.168   0.993  1.00  0.00    +0.000 HD
ATOM     12  H   UNL     1      -3.233   0.368   1.470  1.00  0.00    +0.000 HD
ENDBRANCH   9  10
ENDBRANCH   1   9
BRANCH   1  13
ATOM     13  O   UNL     1      -0.884  -1.633   1.363  1.00  0.00    +0.000 OA
ATOM     14  H   UNL     1      -0.001  -2.005   1.534  1.00  0.00    +0.000 HD
ENDBRANCH   1  13
TORSDOF 4
