REMARK  Name = SANCDB_00912_minRM1.pdb
AUTHORGENERATED BY OPEN BABEL 2.3.2
REMARK  3 active torsions:
REMARK  status: ('A' for Active; 'I' for Inactive)
REMARK    1  A    between atoms: C_1  and  C_2
REMARK    2  A    between atoms: C_5  and  C_8
REMARK    3  A    between atoms: C_8  and  C_10
REMARK                            x       y       z     vdW  Elec       q    Type
REMARK                         _______ _______ _______ _____ _____    ______ ____
ROOT
ATOM      1  C   UNL     1       3.572   0.680   0.303  1.00  0.00    +0.000 C 
ATOM      2  C   UNL     1       2.090   0.451   0.220  1.00  0.00    +0.000 C 
ATOM      3  C   UNL     1       1.202   1.340   0.700  1.00  0.00    +0.000 C 
ATOM      4  C   UNL     1      -0.287   1.131   0.671  1.00  0.00    +0.000 C 
ATOM      5  C   UNL     1      -0.689  -0.326   0.364  1.00  0.00    +0.000 C 
ATOM      6  C   UNL     1       0.167  -0.879  -0.786  1.00  0.00    +0.000 C 
ATOM      7  C   UNL     1       1.657  -0.840  -0.432  1.00  0.00    +0.000 C 
ENDROOT
BRANCH   5   8
ATOM      8  C   UNL     1      -2.185  -0.477   0.111  1.00  0.00    +0.000 C 
ATOM      9  C   UNL     1      -2.969  -1.137   0.982  1.00  0.00    +0.000 C 
ATOM     10  C   UNL     1      -2.768   0.123  -1.141  1.00  0.00    +0.000 C 
ENDBRANCH   5   8
TORSDOF 1
