REMARK  Name = 
REMARK  5 active torsions:
REMARK  status: ('A' for Active; 'I' for Inactive)
REMARK    1  A    between atoms: C_1  and  O_2
REMARK    2  A    between atoms: O_2  and  C_3
REMARK    3  A    between atoms: C_5  and  O_6
REMARK    4  A    between atoms: C_11  and  O_12
REMARK    5  A    between atoms: C_14  and  C_15
REMARK                            x       y       z     vdW  Elec       q    Type
REMARK                         _______ _______ _______ _____ _____    ______ ____
ROOT
ATOM      1  C   UNL     1      -3.407   0.718   0.248  1.00  0.00    +0.000 A 
ATOM      2  C   UNL     1      -3.441  -0.673   0.167  1.00  0.00    +0.000 A 
ATOM      3  C   UNL     1      -2.251  -1.394   0.051  1.00  0.00    +0.000 A 
ATOM      4  C   UNL     1      -1.014  -0.739   0.014  1.00  0.00    +0.000 A 
ATOM      5  C   UNL     1       0.244  -1.497  -0.109  1.00  0.00    +0.000 C 
ATOM      6  O   UNL     1       0.215  -2.725  -0.179  1.00  0.00    +0.000 OA
ATOM      7  C   UNL     1       1.535  -0.786  -0.147  1.00  0.00    +0.000 A 
ATOM      8  C   UNL     1       2.741  -1.490  -0.259  1.00  0.00    +0.000 A 
ATOM      9  C   UNL     1       3.958  -0.811  -0.294  1.00  0.00    +0.000 A 
ATOM     10  C   UNL     1       3.991   0.587  -0.229  1.00  0.00    +0.000 A 
ATOM     11  C   UNL     1       5.302   1.317  -0.233  1.00  0.00    +0.000 C 
ATOM     12  C   UNL     1       2.787   1.290  -0.102  1.00  0.00    +0.000 A 
ATOM     13  C   UNL     1       1.563   0.605  -0.067  1.00  0.00    +0.000 A 
ATOM     14  C   UNL     1       0.307   1.372   0.059  1.00  0.00    +0.000 C 
ATOM     15  O   UNL     1       0.334   2.595   0.132  1.00  0.00    +0.000 OA
ATOM     16  C   UNL     1      -0.981   0.651   0.095  1.00  0.00    +0.000 A 
ATOM     17  C   UNL     1      -2.175   1.376   0.212  1.00  0.00    +0.000 A 
ENDROOT
BRANCH   1  19
ATOM     18  C   UNL     1      -5.771   0.924   0.406  1.00  0.00    +0.000 C 
ATOM     19  O   UNL     1      -4.491   1.543   0.364  1.00  0.00    +0.000 OA
ENDBRANCH   1  19
BRANCH   3  20
ATOM     20  O   UNL     1      -2.378  -2.756  -0.023  1.00  0.00    +0.000 OA
ATOM     21  H   UNL     1      -1.480  -3.150  -0.101  1.00  0.00    +0.000 HD
ENDBRANCH   3  20
BRANCH   8  22
ATOM     22  O   UNL     1       2.808  -2.855  -0.336  1.00  0.00    +0.000 OA
ATOM     23  H   UNL     1       1.895  -3.214  -0.303  1.00  0.00    +0.000 HD
ENDBRANCH   8  22
TORSDOF 3
