REMARK  Name = SANCDB_00782_minRM1.pdb
AUTHORGENERATED BY OPEN BABEL 2.3.2
REMARK  7 active torsions:
REMARK  status: ('A' for Active; 'I' for Inactive)
REMARK    1  A    between atoms: C_1  and  N_2
REMARK    2  A    between atoms: C_11  and  C_12
REMARK    3  A    between atoms: C_14  and  C_30
REMARK    4  A    between atoms: C_15  and  C_25
REMARK    5  A    between atoms: C_15  and  O_26
REMARK    6  A    between atoms: O_26  and  C_27
REMARK    7  A    between atoms: C_27  and  C_29
REMARK                            x       y       z     vdW  Elec       q    Type
REMARK                         _______ _______ _______ _____ _____    ______ ____
ROOT
ATOM      1  C   UNL     1      -4.735   1.545  -1.658  1.00  0.00    +0.000 C 
ATOM      2  N   UNL     1      -3.897   0.701  -0.801  1.00  0.00    +0.000 NA
ATOM      3  C   UNL     1      -3.911   1.214   0.580  1.00  0.00    +0.000 C 
ATOM      4  C   UNL     1      -2.503   1.655   0.994  1.00  0.00    +0.000 C 
ATOM      5  C   UNL     1      -1.438   0.614   0.657  1.00  0.00    +0.000 C 
ATOM      6  O   UNL     1      -0.226   0.909   1.380  1.00  0.00    +0.000 OA
ATOM      7  C   UNL     1       0.944   1.313   0.814  1.00  0.00    +0.000 C 
ATOM      8  O   UNL     1       1.934   1.533   1.503  1.00  0.00    +0.000 OA
ATOM      9  C   UNL     1       1.014   1.524  -0.666  1.00  0.00    +0.000 C 
ATOM     10  O   UNL     1       0.077   2.517  -1.159  1.00  0.00    +0.000 OA
ATOM     11  C   UNL     1       1.443   2.916  -1.158  1.00  0.00    +0.000 C 
ATOM     12  C   UNL     1       1.747   4.054  -0.248  1.00  0.00    +0.000 C 
ATOM     13  C   UNL     1       1.179   0.370  -1.644  1.00  0.00    +0.000 C 
ATOM     14  C   UNL     1       2.471  -0.487  -1.583  1.00  0.00    +0.000 C 
ATOM     15  C   UNL     1       2.469  -1.683  -0.560  1.00  0.00    +0.000 C 
ATOM     16  C   UNL     1       1.191  -2.533  -0.800  1.00  0.00    +0.000 C 
ATOM     17  O   UNL     1       1.063  -3.374  -1.680  1.00  0.00    +0.000 OA
ATOM     18  O   UNL     1       0.206  -2.137   0.049  1.00  0.00    +0.000 OA
ATOM     19  C   UNL     1      -1.057  -2.817  -0.012  1.00  0.00    +0.000 C 
ATOM     20  C   UNL     1      -2.132  -1.772   0.035  1.00  0.00    +0.000 C 
ATOM     21  C   UNL     1      -3.191  -1.711  -0.795  1.00  0.00    +0.000 C 
ATOM     22  C   UNL     1      -4.313  -0.705  -0.892  1.00  0.00    +0.000 C 
ATOM     23  C   UNL     1      -1.931  -0.758   1.104  1.00  0.00    +0.000 C 
ATOM     24  O   UNL     1      -2.133  -1.069   2.277  1.00  0.00    +0.000 OA
ATOM     25  C   UNL     1       3.700  -2.581  -0.814  1.00  0.00    +0.000 C 
ATOM     26  C   UNL     1       3.715   0.406  -1.466  1.00  0.00    +0.000 C 
ENDROOT
BRANCH  15  27
ATOM     27  O   UNL     1       2.572  -1.120   0.762  1.00  0.00    +0.000 OA
BRANCH  27  28
ATOM     28  C   UNL     1       2.493  -1.954   1.836  1.00  0.00    +0.000 C 
ATOM     29  O   UNL     1       2.337  -3.165   1.777  1.00  0.00    +0.000 OA
ATOM     30  C   UNL     1       2.595  -1.179   3.113  1.00  0.00    +0.000 C 
ENDBRANCH  27  28
ENDBRANCH  15  27
TORSDOF 2
