REMARK  Name = /srv/my_project/app/compsite/backup/Dave/CORINA_stuff/newPDBs/SANC00659.pdb
AUTHORGENERATED BY OPEN BABEL 2.3.2
REMARK  8 active torsions:
REMARK  status: ('A' for Active; 'I' for Inactive)
REMARK    1  A    between atoms: C_4  and  C_5
REMARK    2  A    between atoms: C_5  and  O_6
REMARK    3  A    between atoms: O_6  and  C_7
REMARK    4  A    between atoms: C_7  and  C_8
REMARK    5  A    between atoms: C_13  and  C_14
REMARK    6  A    between atoms: C_14  and  O_15
REMARK    7  A    between atoms: O_15  and  C_16
REMARK    8  A    between atoms: C_16  and  C_17
REMARK                            x       y       z     vdW  Elec       q    Type
REMARK                         _______ _______ _______ _____ _____    ______ ____
ROOT
ATOM      1  C   UNL     1      -0.701  -2.715   0.375  1.00  0.00    +0.000 C 
ATOM      2  C   UNL     1      -1.719  -1.620   0.460  1.00  0.00    +0.000 C 
ATOM      3  C   UNL     1      -1.752  -0.586   1.328  1.00  0.00    +0.000 C 
ATOM      4  C   UNL     1      -0.799  -0.363   2.495  1.00  0.00    +0.000 C 
ATOM      5  C   UNL     1       0.714  -0.267   2.233  1.00  0.00    +0.000 C 
ATOM      6  C   UNL     1       1.098   0.600   1.070  1.00  0.00    +0.000 C 
ATOM      7  C   UNL     1       1.623   0.224  -0.117  1.00  0.00    +0.000 C 
ATOM      8  C   UNL     1       1.893  -1.220  -0.516  1.00  0.00    +0.000 C 
ATOM      9  C   UNL     1       0.842  -1.750  -1.504  1.00  0.00    +0.000 C 
ATOM     10  C   UNL     1      -0.086  -2.868  -1.011  1.00  0.00    +0.000 C 
ATOM     11  C   UNL     1       0.438  -4.255  -0.845  1.00  0.00    +0.000 C 
ATOM     12  C   UNL     1       1.527  -4.851  -1.341  1.00  0.00    +0.000 C 
ATOM     13  C   UNL     1      -0.512  -4.945   0.074  1.00  0.00    +0.000 C 
ATOM     14  O   UNL     1      -0.580  -6.141   0.282  1.00  0.00    +0.000 OA
ATOM     15  O   UNL     1      -1.317  -3.985   0.622  1.00  0.00    +0.000 OA
ENDROOT
BRANCH   3  16
ATOM     16  C   UNL     1      -2.852   0.452   1.216  1.00  0.00    +0.000 C 
BRANCH  16  17
ATOM     17  O   UNL     1      -2.235   1.699   0.878  1.00  0.00    +0.000 OA
BRANCH  17  18
ATOM     18  C   UNL     1      -3.109   2.728   0.734  1.00  0.00    +0.000 C 
ATOM     19  C   UNL     1      -2.370   3.976   0.362  1.00  0.00    +0.000 C 
ATOM     20  O   UNL     1      -4.321   2.658   0.880  1.00  0.00    +0.000 OA
ENDBRANCH  17  18
ENDBRANCH  16  17
ENDBRANCH   3  16
BRANCH   7  21
ATOM     21  C   UNL     1       2.010   1.233  -1.195  1.00  0.00    +0.000 C 
BRANCH  21  22
ATOM     22  O   UNL     1       1.729   2.576  -0.786  1.00  0.00    +0.000 OA
BRANCH  22  23
ATOM     23  C   UNL     1       2.045   3.510  -1.721  1.00  0.00    +0.000 C 
ATOM     24  C   UNL     1       1.722   4.879  -1.206  1.00  0.00    +0.000 C 
ATOM     25  O   UNL     1       2.519   3.280  -2.824  1.00  0.00    +0.000 OA
ENDBRANCH  22  23
ENDBRANCH  21  22
ENDBRANCH   7  21
TORSDOF 6
