REMARK  Name = SANCDB_00874_minRM1.pdb
AUTHORGENERATED BY OPEN BABEL 2.3.2
REMARK  3 active torsions:
REMARK  status: ('A' for Active; 'I' for Inactive)
REMARK    1  A    between atoms: C_1  and  C_2
REMARK    2  A    between atoms: C_3  and  C_17
REMARK    3  A    between atoms: C_3  and  C_18
REMARK                            x       y       z     vdW  Elec       q    Type
REMARK                         _______ _______ _______ _____ _____    ______ ____
ROOT
ATOM      1  C   UNL     1      -2.926   1.623   0.666  1.00  0.00    +0.000 C 
ATOM      2  C   UNL     1      -1.902   0.499   0.628  1.00  0.00    +0.000 C 
ATOM      3  C   UNL     1      -1.801  -0.299  -0.710  1.00  0.00    +0.000 C 
ATOM      4  C   UNL     1      -0.337  -0.575  -0.680  1.00  0.00    +0.000 C 
ATOM      5  C   UNL     1       0.256   0.204   0.216  1.00  0.00    +0.000 C 
ATOM      6  O   UNL     1      -0.589   1.054   0.915  1.00  0.00    +0.000 OA
ATOM      7  C   UNL     1       1.693   0.236   0.454  1.00  0.00    +0.000 A 
ATOM      8  C   UNL     1       2.266   1.098   1.397  1.00  0.00    +0.000 A 
ATOM      9  C   UNL     1       3.648   1.101   1.606  1.00  0.00    +0.000 A 
ATOM     10  C   UNL     1       4.471   0.242   0.878  1.00  0.00    +0.000 A 
ATOM     11  C   UNL     1       3.914  -0.622  -0.064  1.00  0.00    +0.000 A 
ATOM     12  C   UNL     1       2.529  -0.623  -0.275  1.00  0.00    +0.000 A 
ATOM     13  C   UNL     1       1.943  -1.544  -1.280  1.00  0.00    +0.000 C 
ATOM     14  O   UNL     1       2.644  -2.328  -1.905  1.00  0.00    +0.000 OA
ATOM     15  C   UNL     1       0.432  -1.494  -1.522  1.00  0.00    +0.000 C 
ATOM     16  O   UNL     1      -0.099  -2.183  -2.379  1.00  0.00    +0.000 OA
ATOM     17  C   UNL     1      -2.155   0.522  -1.958  1.00  0.00    +0.000 C 
ATOM     18  C   UNL     1      -2.678  -1.554  -0.643  1.00  0.00    +0.000 C 
ENDROOT
TORSDOF 0
