REMARK  Name = SANCDB_00893_minRM1.pdb
AUTHORGENERATED BY OPEN BABEL 2.3.2
REMARK  16 active torsions:
REMARK  status: ('A' for Active; 'I' for Inactive)
REMARK    1  A    between atoms: C_1  and  C_2
REMARK    2  A    between atoms: C_4  and  O_39
REMARK    3  A    between atoms: C_5  and  C_17
REMARK    4  A    between atoms: C_11  and  C_13
REMARK    5  A    between atoms: C_13  and  C_14
REMARK    6  A    between atoms: C_14  and  C_16
REMARK    7  A    between atoms: C_18  and  O_27
REMARK    8  A    between atoms: C_19  and  O_26
REMARK    9  A    between atoms: C_20  and  O_25
REMARK   10  A    between atoms: C_21  and  C_23
REMARK   11  A    between atoms: C_23  and  O_24
REMARK   12  A    between atoms: O_27  and  C_28
REMARK   13  A    between atoms: C_28  and  C_30
REMARK   14  A    between atoms: C_31  and  C_32
REMARK   15  A    between atoms: C_35  and  O_38
REMARK   16  A    between atoms: O_39  and  C_40
REMARK                            x       y       z     vdW  Elec       q    Type
REMARK                         _______ _______ _______ _____ _____    ______ ____
ROOT
ATOM      1  C   UNL     1       0.053   1.980   0.633  1.00  0.00    +0.000 C 
ATOM      2  C   UNL     1       1.196   1.874  -0.402  1.00  0.00    +0.000 C 
ATOM      3  C   UNL     1       2.409   2.671   0.094  1.00  0.00    +0.000 C 
ATOM      4  C   UNL     1       2.018   4.099   0.488  1.00  0.00    +0.000 C 
ATOM      5  C   UNL     1       0.889   4.046   1.522  1.00  0.00    +0.000 C 
ATOM      6  O   UNL     1      -0.242   3.337   0.999  1.00  0.00    +0.000 OA
ENDROOT
BRANCH   1  11
ATOM      7  C   UNL     1      -4.911  -0.506  -1.274  1.00  0.00    +0.000 C 
ATOM      8  C   UNL     1      -3.629   0.089  -0.757  1.00  0.00    +0.000 A 
ATOM      9  C   UNL     1      -3.167   1.283  -1.336  1.00  0.00    +0.000 A 
ATOM     10  C   UNL     1      -1.979   1.887  -0.912  1.00  0.00    +0.000 A 
ATOM     11  C   UNL     1      -1.237   1.332   0.146  1.00  0.00    +0.000 A 
ATOM     12  C   UNL     1      -1.692   0.124   0.719  1.00  0.00    +0.000 A 
ATOM     13  C   UNL     1      -2.871  -0.497   0.274  1.00  0.00    +0.000 A 
ATOM     14  C   UNL     1      -3.268  -1.771   0.927  1.00  0.00    +0.000 A 
ATOM     15  O   UNL     1      -4.251  -2.426   0.608  1.00  0.00    +0.000 OA
ATOM     16  C   UNL     1      -2.410  -2.257   2.017  1.00  0.00    +0.000 A 
ATOM     17  C   UNL     1      -1.312  -1.571   2.353  1.00  0.00    +0.000 A 
ATOM     18  O   UNL     1      -0.909  -0.414   1.717  1.00  0.00    +0.000 OA
BRANCH  10  19
ATOM     19  O   UNL     1      -1.510   3.050  -1.470  1.00  0.00    +0.000 OA
ATOM     20  C   UNL     1      -1.692   3.157  -2.881  1.00  0.00    +0.000 C 
ENDBRANCH  10  19
BRANCH  17  21
ATOM     21  C   UNL     1      -0.385  -2.020   3.443  1.00  0.00    +0.000 C 
BRANCH  21  22
ATOM     22  C   UNL     1      -0.690  -1.261   4.720  1.00  0.00    +0.000 C 
ATOM     23  O   UNL     1      -1.466  -1.713   5.563  1.00  0.00    +0.000 OA
ATOM     24  C   UNL     1      -0.050   0.093   4.892  1.00  0.00    +0.000 C 
ENDBRANCH  21  22
ENDBRANCH  17  21
ENDBRANCH   1  11
BRANCH   4  25
ATOM     25  O   UNL     1       3.190   4.743   1.000  1.00  0.00    +0.000 OA
ATOM     26  H   UNL     1       3.049   5.706   0.953  1.00  0.00    +0.000 HD
ENDBRANCH   4  25
BRANCH   3  27
ATOM     27  O   UNL     1       3.417   2.731  -0.928  1.00  0.00    +0.000 OA
ATOM     28  H   UNL     1       4.102   3.334  -0.581  1.00  0.00    +0.000 HD
ENDBRANCH   3  27
BRANCH   5  29
ATOM     29  C   UNL     1       0.398   5.446   1.902  1.00  0.00    +0.000 C 
BRANCH  29  30
ATOM     30  O   UNL     1      -0.663   5.338   2.852  1.00  0.00    +0.000 OA
ATOM     31  H   UNL     1      -1.301   4.710   2.456  1.00  0.00    +0.000 HD
ENDBRANCH  29  30
ENDBRANCH   5  29
BRANCH   2  32
ATOM     32  O   UNL     1       1.608   0.489  -0.520  1.00  0.00    +0.000 OA
BRANCH  32  33
ATOM     33  C   UNL     1       1.210  -0.161  -1.640  1.00  0.00    +0.000 C 
ATOM     34  O   UNL     1       0.537   0.287  -2.553  1.00  0.00    +0.000 OA
BRANCH  33  35
ATOM     35  C   UNL     1       1.705  -1.549  -1.550  1.00  0.00    +0.000 C 
ATOM     36  C   UNL     1       1.361  -2.442  -2.491  1.00  0.00    +0.000 C 
BRANCH  36  37
ATOM     37  C   UNL     1       1.809  -3.839  -2.489  1.00  0.00    +0.000 A 
ATOM     38  C   UNL     1       2.139  -4.444  -3.709  1.00  0.00    +0.000 A 
ATOM     39  C   UNL     1       2.544  -5.780  -3.752  1.00  0.00    +0.000 A 
ATOM     40  C   UNL     1       2.607  -6.519  -2.577  1.00  0.00    +0.000 A 
ATOM     41  C   UNL     1       2.268  -5.944  -1.357  1.00  0.00    +0.000 A 
ATOM     42  C   UNL     1       1.865  -4.605  -1.316  1.00  0.00    +0.000 A 
BRANCH  40  43
ATOM     43  O   UNL     1       3.004  -7.819  -2.666  1.00  0.00    +0.000 OA
ATOM     44  H   UNL     1       2.982  -8.213  -1.778  1.00  0.00    +0.000 HD
ENDBRANCH  40  43
ENDBRANCH  36  37
ENDBRANCH  33  35
ENDBRANCH  32  33
ENDBRANCH   2  32
TORSDOF 13
