REMARK  Name = /srv/my_project/app/compsite/backup/Dave/CORINA_stuff/newPDBs/SANC00173.pdb
AUTHORGENERATED BY OPEN BABEL 2.3.2
REMARK  13 active torsions:
REMARK  status: ('A' for Active; 'I' for Inactive)
REMARK    1  A    between atoms: C_5  and  C_7
REMARK    2  A    between atoms: C_9  and  C_10
REMARK    3  A    between atoms: C_12  and  O_14
REMARK    4  A    between atoms: C_19  and  O_21
REMARK    5  A    between atoms: O_21  and  C_22
REMARK    6  A    between atoms: C_22  and  C_23
REMARK    7  A    between atoms: C_28  and  O_30
REMARK    8  A    between atoms: O_30  and  C_31
REMARK    9  A    between atoms: C_31  and  C_32
REMARK   10  A    between atoms: C_36  and  C_37
REMARK   11  A    between atoms: C_37  and  O_38
REMARK   12  A    between atoms: O_38  and  C_39
REMARK   13  A    between atoms: C_39  and  C_40
REMARK                            x       y       z     vdW  Elec       q    Type
REMARK                         _______ _______ _______ _____ _____    ______ ____
ROOT
ATOM      1  C   UNL     1      -2.179   0.122  -0.588  1.00  0.00    +0.000 C 
ATOM      2  C   UNL     1      -3.312   1.084  -0.915  1.00  0.00    +0.000 C 
ATOM      3  C   UNL     1      -4.558   0.177  -0.920  1.00  0.00    +0.000 C 
ATOM      4  C   UNL     1      -4.095  -1.221  -0.411  1.00  0.00    +0.000 C 
ATOM      5  C   UNL     1      -2.818  -0.878   0.412  1.00  0.00    +0.000 C 
ATOM      6  C   UNL     1      -3.201  -0.224   1.775  1.00  0.00    +0.000 C 
ATOM      7  C   UNL     1      -1.845  -2.042   0.707  1.00  0.00    +0.000 C 
ATOM      8  C   UNL     1      -0.451  -1.946   0.056  1.00  0.00    +0.000 C 
ATOM      9  C   UNL     1       0.185  -0.531  -0.123  1.00  0.00    +0.000 C 
ATOM     10  C   UNL     1      -0.851   0.637  -0.055  1.00  0.00    +0.000 C 
ATOM     11  C   UNL     1      -0.285   1.885  -0.754  1.00  0.00    +0.000 C 
ATOM     12  C   UNL     1       1.136   2.133  -0.314  1.00  0.00    +0.000 C 
ATOM     13  C   UNL     1       1.910   1.254   0.357  1.00  0.00    +0.000 C 
ATOM     14  C   UNL     1       3.370   1.554   0.617  1.00  0.00    +0.000 C 
ATOM     15  C   UNL     1       4.269   0.629  -0.230  1.00  0.00    +0.000 C 
ATOM     16  C   UNL     1       3.567  -0.681  -0.626  1.00  0.00    +0.000 C 
ATOM     17  C   UNL     1       2.620  -1.168   0.472  1.00  0.00    +0.000 C 
ATOM     18  C   UNL     1       1.445  -0.170   0.755  1.00  0.00    +0.000 C 
ENDROOT
BRANCH   4  19
ATOM     19  C   UNL     1      -5.243  -2.007   0.171  1.00  0.00    +0.000 C 
ATOM     20  C   UNL     1      -5.223  -2.845   1.215  1.00  0.00    +0.000 C 
ENDBRANCH   4  19
BRANCH   8  21
ATOM     21  O   UNL     1      -0.601  -2.530  -1.253  1.00  0.00    +0.000 OA
ATOM     22  H   UNL     1       0.289  -2.644  -1.629  1.00  0.00    +0.000 HD
ENDBRANCH   8  21
BRANCH  11  23
ATOM     23  O   UNL     1      -0.280   1.670  -2.174  1.00  0.00    +0.000 OA
BRANCH  23  24
ATOM     24  C   UNL     1      -0.426   2.775  -2.951  1.00  0.00    +0.000 C 
ATOM     25  C   UNL     1      -0.421   2.383  -4.396  1.00  0.00    +0.000 C 
ATOM     26  O   UNL     1      -0.543   3.924  -2.548  1.00  0.00    +0.000 OA
ENDBRANCH  23  24
ENDBRANCH  11  23
BRANCH  15  27
ATOM     27  O   UNL     1       4.662   1.277  -1.458  1.00  0.00    +0.000 OA
BRANCH  27  28
ATOM     28  C   UNL     1       5.673   2.182  -1.355  1.00  0.00    +0.000 C 
ATOM     29  C   UNL     1       5.966   2.778  -2.697  1.00  0.00    +0.000 C 
ATOM     30  O   UNL     1       6.260   2.477  -0.323  1.00  0.00    +0.000 OA
ENDBRANCH  27  28
ENDBRANCH  15  27
BRANCH  18  31
ATOM     31  C   UNL     1       1.135  -0.194   2.283  1.00  0.00    +0.000 C 
BRANCH  31  32
ATOM     32  O   UNL     1       0.796  -1.519   2.715  1.00  0.00    +0.000 OA
BRANCH  32  33
ATOM     33  C   UNL     1       0.504  -1.619   4.042  1.00  0.00    +0.000 C 
ATOM     34  C   UNL     1       0.170  -3.037   4.388  1.00  0.00    +0.000 C 
ATOM     35  O   UNL     1       0.507  -0.693   4.840  1.00  0.00    +0.000 OA
ENDBRANCH  32  33
ENDBRANCH  31  32
ENDBRANCH  18  31
TORSDOF 9
