REMARK  Name = /srv/my_project/app/compsite/backup/Dave/CORINA_stuff/newPDBs/SANC00101.pdb
AUTHORGENERATED BY OPEN BABEL 2.3.2
REMARK  6 active torsions:
REMARK  status: ('A' for Active; 'I' for Inactive)
REMARK    1  A    between atoms: C_3  and  O_23
REMARK    2  A    between atoms: C_4  and  O_22
REMARK    3  A    between atoms: C_6  and  C_7
REMARK    4  A    between atoms: C_9  and  O_21
REMARK    5  A    between atoms: C_13  and  O_20
REMARK    6  A    between atoms: C_15  and  O_19
REMARK                            x       y       z     vdW  Elec       q    Type
REMARK                         _______ _______ _______ _____ _____    ______ ____
ROOT
ATOM      1  C   UNL     1       0.325  -0.271   1.678  1.00  0.00    +0.000 C 
ATOM      2  C   UNL     1      -0.467  -1.591   1.534  1.00  0.00    +0.000 C 
ATOM      3  C   UNL     1      -1.154  -1.626   0.175  1.00  0.00    +0.000 C 
ATOM      4  C   UNL     1      -1.911  -0.349  -0.039  1.00  0.00    +0.000 A 
ATOM      5  C   UNL     1      -2.949  -0.275  -0.976  1.00  0.00    +0.000 A 
ATOM      6  C   UNL     1      -3.657   0.908  -1.176  1.00  0.00    +0.000 A 
ATOM      7  C   UNL     1      -3.319   2.033  -0.435  1.00  0.00    +0.000 A 
ATOM      8  C   UNL     1      -2.284   1.993   0.493  1.00  0.00    +0.000 A 
ATOM      9  C   UNL     1      -1.575   0.805   0.681  1.00  0.00    +0.000 A 
ATOM     10  O   UNL     1      -0.554   0.872   1.597  1.00  0.00    +0.000 OA
ENDROOT
BRANCH   1  16
ATOM     11  C   UNL     1       2.671  -0.965   0.992  1.00  0.00    +0.000 A 
ATOM     12  C   UNL     1       3.822  -0.868   0.202  1.00  0.00    +0.000 A 
ATOM     13  C   UNL     1       3.869   0.081  -0.807  1.00  0.00    +0.000 A 
ATOM     14  C   UNL     1       2.785   0.925  -1.024  1.00  0.00    +0.000 A 
ATOM     15  C   UNL     1       1.639   0.834  -0.244  1.00  0.00    +0.000 A 
ATOM     16  C   UNL     1       1.557  -0.125   0.779  1.00  0.00    +0.000 A 
BRANCH  14  17
ATOM     17  O   UNL     1       2.843   1.863  -2.016  1.00  0.00    +0.000 OA
ATOM     18  H   UNL     1       3.725   1.736  -2.418  1.00  0.00    +0.000 HD
ENDBRANCH  14  17
BRANCH  13  19
ATOM     19  O   UNL     1       4.964   0.227  -1.614  1.00  0.00    +0.000 OA
ATOM     20  H   UNL     1       5.625  -0.432  -1.342  1.00  0.00    +0.000 HD
ENDBRANCH  13  19
ENDBRANCH   1  16
BRANCH   7  21
ATOM     21  O   UNL     1      -4.032   3.175  -0.654  1.00  0.00    +0.000 OA
ATOM     22  H   UNL     1      -3.662   3.882  -0.100  1.00  0.00    +0.000 HD
ENDBRANCH   7  21
BRANCH   5  23
ATOM     23  O   UNL     1      -3.264  -1.393  -1.696  1.00  0.00    +0.000 OA
ATOM     24  H   UNL     1      -3.956  -1.162  -2.338  1.00  0.00    +0.000 HD
ENDBRANCH   5  23
BRANCH   2  25
ATOM     25  O   UNL     1       0.328  -2.759   1.748  1.00  0.00    +0.000 OA
ATOM     26  H   UNL     1      -0.238  -3.530   1.568  1.00  0.00    +0.000 HD
ENDBRANCH   2  25
TORSDOF 6
