REMARK  Name = /srv/my_project/app/compsite/backup/Dave/CORINA_stuff/newPDBs/SANC00580.pdb
AUTHORGENERATED BY OPEN BABEL 2.3.2
REMARK  5 active torsions:
REMARK  status: ('A' for Active; 'I' for Inactive)
REMARK    1  A    between atoms: C_1  and  C_2
REMARK    2  A    between atoms: C_2  and  C_3
REMARK    3  A    between atoms: C_12  and  C_13
REMARK    4  A    between atoms: C_19  and  C_20
REMARK    5  A    between atoms: C_23  and  O_25
REMARK                            x       y       z     vdW  Elec       q    Type
REMARK                         _______ _______ _______ _____ _____    ______ ____
ROOT
ATOM      1  C   UNL     1      -2.078  -0.171  -1.722  1.00  0.00    +0.000 C 
ATOM      2  C   UNL     1      -1.272  -0.921  -0.617  1.00  0.00    +0.000 C 
ATOM      3  C   UNL     1      -0.450  -1.988  -1.391  1.00  0.00    +0.000 C 
ATOM      4  C   UNL     1      -2.283  -1.620   0.352  1.00  0.00    +0.000 C 
ATOM      5 BR   UNL     1      -2.329  -3.546   0.553  1.00  0.00    +0.000 Br
ATOM      6  O   UNL     1      -3.617  -1.065   0.327  1.00  0.00    +0.000 OA
ATOM      7  C   UNL     1      -2.848  -0.813   1.503  1.00  0.00    +0.000 C 
ATOM      8  C   UNL     1      -2.476   0.628   1.675  1.00  0.00    +0.000 C 
ATOM      9  O   UNL     1      -1.286   0.919   2.401  1.00  0.00    +0.000 OA
ATOM     10  C   UNL     1      -1.233   1.168   0.981  1.00  0.00    +0.000 C 
ATOM     11  C   UNL     1      -1.278   2.631   0.636  1.00  0.00    +0.000 C 
ATOM     12  C   UNL     1      -0.305   0.146   0.179  1.00  0.00    +0.000 C 
ATOM     13  C   UNL     1       0.582   0.948  -0.855  1.00  0.00    +0.000 C 
ATOM     14  C   UNL     1       1.858   1.512  -0.216  1.00  0.00    +0.000 C 
ATOM     15 BR   UNL     1       2.615   2.875  -1.403  1.00  0.00    +0.000 Br
ATOM     16  C   UNL     1       2.853   0.391   0.164  1.00  0.00    +0.000 C 
ATOM     17  C   UNL     1       3.833  -0.039  -0.940  1.00  0.00    +0.000 C 
ATOM     18 CL   UNL     1       3.849   0.974   1.562  1.00  0.00    +0.000 Cl
ATOM     19  C   UNL     1       2.076  -0.866   0.620  1.00  0.00    +0.000 C 
ATOM     20  C   UNL     1       0.699  -0.537   1.210  1.00  0.00    +0.000 C 
ENDROOT
BRANCH  20  21
ATOM     21  O   UNL     1       0.157  -1.730   1.759  1.00  0.00    +0.000 OA
ATOM     22  H   UNL     1       0.651  -1.936   2.573  1.00  0.00    +0.000 HD
ENDBRANCH  20  21
TORSDOF 1
