REMARK  Name = SANC00364.pdb
AUTHORGENERATED BY OPEN BABEL 2.3.0
REMARK  11 active torsions:
REMARK  status: ('A' for Active; 'I' for Inactive)
REMARK    1  A    between atoms: C_2  and  C_17
REMARK    2  A    between atoms: C_3  and  C_24
REMARK    3  A    between atoms: C_4  and  C_24
REMARK    4  A    between atoms: C_5  and  C_27
REMARK    5  A    between atoms: C_6  and  C_27
REMARK    6  A    between atoms: C_7  and  C_28
REMARK    7  A    between atoms: O_11  and  C_18
REMARK    8  A    between atoms: O_12  and  C_25
REMARK    9  A    between atoms: O_16  and  C_17
REMARK   10  A    between atoms: O_16  and  C_26
REMARK   11  A    between atoms: C_19  and  C_24
REMARK                            x       y       z     vdW  Elec       q    Type
REMARK                         _______ _______ _______ _____ _____    ______ ____
ROOT
ATOM      1  C   UNL     1      -3.935  -1.165  -1.492  1.00  0.00    +0.000 C 
ATOM      2  C   UNL     1      -4.258   0.282   0.488  1.00  0.00    +0.000 C 
ATOM      3  C   UNL     1      -0.772  -2.502  -1.032  1.00  0.00    +0.000 C 
ATOM      4  O   UNL     1       2.414   2.204  -0.902  1.00  0.00    +0.000 OA
ATOM      5  O   UNL     1       1.721  -2.740   0.887  1.00  0.00    +0.000 OA
ATOM      6  C   UNL     1      -2.480  -2.078   1.944  1.00  0.00    +0.000 C 
ATOM      7  C   UNL     1      -3.487  -2.085   0.805  1.00  0.00    +0.000 C 
ATOM      8  C   UNL     1      -1.026  -2.093   1.459  1.00  0.00    +0.000 C 
ATOM      9  C   UNL     1       3.167  -0.975   0.473  1.00  0.00    +0.000 C 
ATOM     10  C   UNL     1       3.399   0.270   0.037  1.00  0.00    +0.000 C 
ATOM     11  C   UNL     1       0.877   0.480  -0.414  1.00  0.00    +0.000 C 
ATOM     12  C   UNL     1       0.646  -0.771   0.032  1.00  0.00    +0.000 C 
ATOM     13  C   UNL     1       2.248   1.071  -0.460  1.00  0.00    +0.000 C 
ATOM     14  C   UNL     1       1.810  -1.581   0.487  1.00  0.00    +0.000 C 
ATOM     15  C   UNL     1      -1.529   0.682  -1.252  1.00  0.00    +0.000 C 
ATOM     16  C   UNL     1      -0.195   1.404  -0.948  1.00  0.00    +0.000 C 
ATOM     17  C   UNL     1      -3.354  -0.835  -0.104  1.00  0.00    +0.000 C 
ATOM     18  C   UNL     1      -0.761  -1.416   0.073  1.00  0.00    +0.000 C 
ATOM     19  C   UNL     1      -1.865  -0.310  -0.117  1.00  0.00    +0.000 C 
ENDROOT
BRANCH  10  22
ATOM     20  C   UNL     1       5.727   0.240  -0.968  1.00  0.00    +0.000 C 
ATOM     21  C   UNL     1       5.391   1.078   1.392  1.00  0.00    +0.000 C 
ATOM     22  C   UNL     1       4.767   0.939  -0.001  1.00  0.00    +0.000 C 
ENDBRANCH  10  22
BRANCH   9  23
ATOM     23  O   UNL     1       4.190  -1.788   0.938  1.00  0.00    +0.000 OA
ATOM     24  H   UNL     1       3.755  -2.637   1.174  1.00  0.00    +0.000 HD
ENDBRANCH   9  23
BRANCH  15  25
ATOM     25  O   UNL     1      -1.454   0.030  -2.518  1.00  0.00    +0.000 OA
ATOM     26  H   UNL     1      -1.461   0.726  -3.202  1.00  0.00    +0.000 HD
ENDBRANCH  15  25
BRANCH  16  27
ATOM     27  O   UNL     1      -0.402   2.415   0.061  1.00  0.00    +0.000 OA
BRANCH  27  30
ATOM     28  C   UNL     1      -0.964   4.598   0.705  1.00  0.00    +0.000 C 
ATOM     29  O   UNL     1      -1.293   3.790  -1.545  1.00  0.00    +0.000 OA
ATOM     30  C   UNL     1      -0.909   3.590  -0.401  1.00  0.00    +0.000 C 
ENDBRANCH  27  30
ENDBRANCH  16  27
TORSDOF 5
