REMARK  Name = SANCDB_01027_minRM1.pdb
AUTHORGENERATED BY OPEN BABEL 2.3.2
REMARK  19 active torsions:
REMARK  status: ('A' for Active; 'I' for Inactive)
REMARK    1  A    between atoms: C_1  and  C_2
REMARK    2  A    between atoms: C_2  and  C_3
REMARK    3  A    between atoms: C_2  and  C_16
REMARK    4  A    between atoms: C_3  and  C_4
REMARK    5  A    between atoms: C_4  and  C_5
REMARK    6  A    between atoms: C_5  and  C_6
REMARK    7  A    between atoms: C_6  and  C_7
REMARK    8  A    between atoms: C_6  and  C_8
REMARK    9  A    between atoms: C_8  and  C_9
REMARK   10  A    between atoms: C_9  and  C_10
REMARK   11  A    between atoms: C_10  and  C_11
REMARK   12  A    between atoms: C_11  and  C_15
REMARK   13  A    between atoms: C_12  and  C_13
REMARK   14  A    between atoms: C_13  and  O_14
REMARK   15  A    between atoms: C_16  and  C_17
REMARK   16  A    between atoms: C_17  and  C_18
REMARK   17  A    between atoms: C_18  and  C_19
REMARK   18  A    between atoms: C_19  and  C_20
REMARK   19  A    between atoms: C_19  and  C_21
REMARK                            x       y       z     vdW  Elec       q    Type
REMARK                         _______ _______ _______ _____ _____    ______ ____
ROOT
ATOM      1  C   UNL     1       1.000  -0.317   0.244  1.00  0.00    +0.000 C 
ENDROOT
BRANCH   1   2
ATOM      2  C   UNL     1       2.095   0.550  -0.409  1.00  0.00    +0.000 C 
ATOM      3  C   UNL     1       2.372   1.829   0.387  1.00  0.00    +0.000 C 
BRANCH   2   4
ATOM      4  C   UNL     1       3.392  -0.252  -0.652  1.00  0.00    +0.000 C 
BRANCH   4   5
ATOM      5  C   UNL     1       4.063  -0.806   0.613  1.00  0.00    +0.000 C 
BRANCH   5   6
ATOM      6  C   UNL     1       5.369  -1.559   0.312  1.00  0.00    +0.000 C 
BRANCH   6   7
ATOM      7  C   UNL     1       6.594  -0.775  -0.145  1.00  0.00    +0.000 C 
ATOM      8  C   UNL     1       6.702   0.567  -0.054  1.00  0.00    +0.000 C 
ATOM      9  C   UNL     1       7.685  -1.668  -0.684  1.00  0.00    +0.000 C 
BRANCH   8  10
ATOM     10  C   UNL     1       7.833   1.444  -0.488  1.00  0.00    +0.000 C 
BRANCH  10  11
ATOM     11  O   UNL     1       8.423   2.011   0.670  1.00  0.00    +0.000 OA
ATOM     12  H   UNL     1       8.625   1.271   1.268  1.00  0.00    +0.000 HD
ENDBRANCH  10  11
ENDBRANCH   8  10
ENDBRANCH   6   7
ENDBRANCH   5   6
ENDBRANCH   4   5
ENDBRANCH   2   4
ENDBRANCH   1   2
BRANCH   1  13
ATOM     13  C   UNL     1      -0.382   0.350   0.241  1.00  0.00    +0.000 C 
BRANCH  13  14
ATOM     14  C   UNL     1      -1.450  -0.593   0.808  1.00  0.00    +0.000 C 
BRANCH  14  16
ATOM     15  C   UNL     1      -3.070   1.224   1.553  1.00  0.00    +0.000 C 
ATOM     16  C   UNL     1      -2.889  -0.038   0.704  1.00  0.00    +0.000 C 
BRANCH  16  17
ATOM     17  C   UNL     1      -3.882  -1.148   1.116  1.00  0.00    +0.000 C 
BRANCH  17  18
ATOM     18  C   UNL     1      -5.372  -0.795   1.019  1.00  0.00    +0.000 C 
BRANCH  18  19
ATOM     19  C   UNL     1      -5.809  -0.386  -0.391  1.00  0.00    +0.000 C 
BRANCH  19  20
ATOM     20  C   UNL     1      -7.337  -0.262  -0.545  1.00  0.00    +0.000 C 
ATOM     21  C   UNL     1      -7.923   0.840   0.340  1.00  0.00    +0.000 C 
ATOM     22  C   UNL     1      -7.691   0.009  -2.009  1.00  0.00    +0.000 C 
ENDBRANCH  19  20
ENDBRANCH  18  19
ENDBRANCH  17  18
ENDBRANCH  16  17
ENDBRANCH  14  16
ENDBRANCH  13  14
ENDBRANCH   1  13
TORSDOF 14
