REMARK  Name = /srv/my_project/app/compsite/backup/Dave/CORINA_stuff/newPDBs/SANC00667.pdb
AUTHORGENERATED BY OPEN BABEL 2.3.2
REMARK  27 active torsions:
REMARK  status: ('A' for Active; 'I' for Inactive)
REMARK    1  A    between atoms: C_11  and  C_12
REMARK    2  A    between atoms: C_16  and  O_18
REMARK    3  A    between atoms: O_18  and  C_19
REMARK    4  A    between atoms: C_22  and  C_24
REMARK    5  A    between atoms: C_24  and  O_25
REMARK    6  A    between atoms: O_25  and  C_26
REMARK    7  A    between atoms: C_26  and  C_27
REMARK    8  A    between atoms: C_29  and  O_31
REMARK    9  A    between atoms: C_32  and  O_34
REMARK   10  A    between atoms: C_35  and  O_37
REMARK   11  A    between atoms: C_38  and  C_40
REMARK   12  A    between atoms: C_40  and  C_42
REMARK   13  A    between atoms: C_40  and  C_43
REMARK   14  A    between atoms: C_43  and  O_45
REMARK   15  A    between atoms: C_43  and  C_46
REMARK   16  A    between atoms: C_46  and  C_47
REMARK   17  A    between atoms: C_47  and  C_48
REMARK   18  A    between atoms: C_48  and  C_49
REMARK   19  A    between atoms: C_48  and  C_50
REMARK   20  A    between atoms: C_51  and  C_52
REMARK   21  A    between atoms: C_53  and  O_55
REMARK   22  A    between atoms: O_55  and  C_56
REMARK   23  A    between atoms: C_59  and  C_61
REMARK   24  A    between atoms: C_62  and  O_64
REMARK   25  A    between atoms: C_65  and  O_67
REMARK   26  A    between atoms: C_68  and  O_70
REMARK   27  A    between atoms: C_72  and  O_74
REMARK                            x       y       z     vdW  Elec       q    Type
REMARK                         _______ _______ _______ _____ _____    ______ ____
ROOT
ATOM      1  C   UNL     1       3.641   1.108   2.540  1.00  0.00    +0.000 C 
ATOM      2  C   UNL     1       2.637   2.191   2.946  1.00  0.00    +0.000 C 
ATOM      3  C   UNL     1       1.612   2.411   1.843  1.00  0.00    +0.000 C 
ATOM      4  C   UNL     1       0.879   1.116   1.472  1.00  0.00    +0.000 C 
ATOM      5  C   UNL     1       1.877  -0.042   1.122  1.00  0.00    +0.000 C 
ATOM      6  C   UNL     1       1.091  -1.303   0.677  1.00  0.00    +0.000 C 
ATOM      7  C   UNL     1       0.087  -1.035  -0.454  1.00  0.00    +0.000 C 
ATOM      8  C   UNL     1      -0.895   0.093  -0.112  1.00  0.00    +0.000 C 
ATOM      9  C   UNL     1      -1.828  -0.368   1.025  1.00  0.00    +0.000 C 
ATOM     10  C   UNL     1      -0.049   1.336   0.269  1.00  0.00    +0.000 C 
ATOM     11  C   UNL     1      -1.080   2.462   0.315  1.00  0.00    +0.000 C 
ATOM     12  C   UNL     1      -1.997   2.162  -0.891  1.00  0.00    +0.000 C 
ATOM     13  C   UNL     1      -1.666   0.692  -1.329  1.00  0.00    +0.000 C 
ATOM     14  C   UNL     1       2.965  -0.277   2.253  1.00  0.00    +0.000 C 
ATOM     15  C   UNL     1       2.288  -0.862   3.522  1.00  0.00    +0.000 C 
ATOM     16  C   UNL     1       4.111  -1.249   1.766  1.00  0.00    +0.000 C 
ATOM     17  C   UNL     1       5.293  -1.318   2.748  1.00  0.00    +0.000 C 
ATOM     18  C   UNL     1       5.867   0.056   3.060  1.00  0.00    +0.000 C 
ATOM     19  C   UNL     1       4.789   1.020   3.553  1.00  0.00    +0.000 C 
ENDROOT
BRANCH  18  20
ATOM     20  O   UNL     1       6.880  -0.086   4.053  1.00  0.00    +0.000 OA
ATOM     21  H   UNL     1       7.244   0.799   4.232  1.00  0.00    +0.000 HD
ENDBRANCH  18  20
BRANCH  13  22
ATOM     22  C   UNL     1      -2.794  -0.076  -2.073  1.00  0.00    +0.000 C 
ATOM     23  C   UNL     1      -3.986  -0.526  -1.217  1.00  0.00    +0.000 C 
BRANCH  22  24
ATOM     24  C   UNL     1      -2.288  -1.296  -2.909  1.00  0.00    +0.000 C 
BRANCH  24  25
ATOM     25  O   UNL     1      -3.392  -1.883  -3.604  1.00  0.00    +0.000 OA
ATOM     26  H   UNL     1      -3.847  -1.173  -4.088  1.00  0.00    +0.000 HD
ENDBRANCH  24  25
BRANCH  24  27
ATOM     27  C   UNL     1      -1.212  -0.960  -3.950  1.00  0.00    +0.000 C 
BRANCH  27  28
ATOM     28  C   UNL     1      -0.729  -2.142  -4.807  1.00  0.00    +0.000 C 
BRANCH  28  29
ATOM     29  C   UNL     1       0.026  -3.238  -4.024  1.00  0.00    +0.000 C 
ATOM     30  C   UNL     1       1.206  -3.763  -4.859  1.00  0.00    +0.000 C 
ATOM     31  C   UNL     1      -0.889  -4.421  -3.677  1.00  0.00    +0.000 C 
ENDBRANCH  28  29
ENDBRANCH  27  28
ENDBRANCH  24  27
ENDBRANCH  22  24
ENDBRANCH  13  22
BRANCH  16  32
ATOM     32  O   UNL     1       3.590  -2.569   1.595  1.00  0.00    +0.000 OA
BRANCH  32  33
ATOM     33  C   UNL     1       4.261  -3.354   0.599  1.00  0.00    +0.000 C 
ATOM     34  O   UNL     1       4.138  -2.723  -0.677  1.00  0.00    +0.000 OA
ATOM     35  C   UNL     1       4.801  -3.407  -1.751  1.00  0.00    +0.000 C 
ATOM     36  C   UNL     1       6.245  -2.925  -1.868  1.00  0.00    +0.000 C 
ATOM     37  C   UNL     1       4.714  -4.939  -1.635  1.00  0.00    +0.000 C 
ATOM     38  C   UNL     1       3.453  -5.294  -0.844  1.00  0.00    +0.000 C 
ATOM     39  C   UNL     1       3.587  -4.749   0.586  1.00  0.00    +0.000 C 
BRANCH  39  40
ATOM     40  O   UNL     1       4.359  -5.679   1.370  1.00  0.00    +0.000 OA
ATOM     41  H   UNL     1       4.037  -6.560   1.093  1.00  0.00    +0.000 HD
ENDBRANCH  39  40
BRANCH  38  42
ATOM     42  O   UNL     1       3.283  -6.723  -0.804  1.00  0.00    +0.000 OA
ATOM     43  H   UNL     1       2.670  -6.939  -1.533  1.00  0.00    +0.000 HD
ENDBRANCH  38  42
BRANCH  37  44
ATOM     44  O   UNL     1       4.677  -5.544  -2.933  1.00  0.00    +0.000 OA
ATOM     45  H   UNL     1       4.665  -6.507  -2.768  1.00  0.00    +0.000 HD
ENDBRANCH  37  44
ENDBRANCH  32  33
ENDBRANCH  16  32
BRANCH  12  46
ATOM     46  O   UNL     1      -3.363   2.349  -0.553  1.00  0.00    +0.000 OA
BRANCH  46  47
ATOM     47  C   UNL     1      -3.820   3.685  -0.813  1.00  0.00    +0.000 C 
ATOM     48  O   UNL     1      -3.218   4.607   0.108  1.00  0.00    +0.000 OA
ATOM     49  C   UNL     1      -4.092   5.231   1.056  1.00  0.00    +0.000 C 
ATOM     50  C   UNL     1      -5.283   5.934   0.362  1.00  0.00    +0.000 C 
ATOM     51  C   UNL     1      -5.885   5.104  -0.783  1.00  0.00    +0.000 C 
ATOM     52  C   UNL     1      -5.358   3.674  -0.831  1.00  0.00    +0.000 C 
BRANCH  50  53
ATOM     53  O   UNL     1      -4.799   7.170  -0.219  1.00  0.00    +0.000 OA
ATOM     54  H   UNL     1      -5.570   7.696  -0.495  1.00  0.00    +0.000 HD
ENDBRANCH  50  53
BRANCH  51  55
ATOM     55  O   UNL     1      -7.324   5.057  -0.663  1.00  0.00    +0.000 OA
ATOM     56  H   UNL     1      -7.675   5.911  -0.972  1.00  0.00    +0.000 HD
ENDBRANCH  51  55
BRANCH  52  57
ATOM     57  O   UNL     1      -5.862   3.046  -2.028  1.00  0.00    +0.000 OA
ATOM     58  H   UNL     1      -6.834   3.103  -1.931  1.00  0.00    +0.000 HD
ENDBRANCH  52  57
BRANCH  49  59
ATOM     59  C   UNL     1      -4.499   4.296   2.212  1.00  0.00    +0.000 C 
BRANCH  59  60
ATOM     60  O   UNL     1      -5.247   5.059   3.180  1.00  0.00    +0.000 OA
BRANCH  60  61
ATOM     61  C   UNL     1      -5.721   4.339   4.234  1.00  0.00    +0.000 C 
ATOM     62  C   UNL     1      -6.460   5.238   5.182  1.00  0.00    +0.000 C 
ATOM     63  O   UNL     1      -5.569   3.138   4.392  1.00  0.00    +0.000 OA
ENDBRANCH  60  61
ENDBRANCH  59  60
ENDBRANCH  49  59
ENDBRANCH  46  47
ENDBRANCH  12  46
TORSDOF 20
