REMARK  Name = /srv/my_project/app/compsite/backup/Dave/CORINA_stuff/newPDBs/SANC00558.pdb
AUTHORGENERATED BY OPEN BABEL 2.3.2
REMARK  13 active torsions:
REMARK  status: ('A' for Active; 'I' for Inactive)
REMARK    1  A    between atoms: C_3  and  O_4
REMARK    2  A    between atoms: C_5  and  C_6
REMARK    3  A    between atoms: C_9  and  O_10
REMARK    4  A    between atoms: C_11  and  O_12
REMARK    5  A    between atoms: C_16  and  O_17
REMARK    6  A    between atoms: C_18  and  O_19
REMARK    7  A    between atoms: C_21  and  C_22
REMARK    8  A    between atoms: C_27  and  O_28
REMARK    9  A    between atoms: C_29  and  O_30
REMARK   10  A    between atoms: C_33  and  C_35
REMARK   11  A    between atoms: C_38  and  O_39
REMARK   12  A    between atoms: C_40  and  O_41
REMARK   13  A    between atoms: C_43  and  O_45
REMARK                            x       y       z     vdW  Elec       q    Type
REMARK                         _______ _______ _______ _____ _____    ______ ____
ROOT
ATOM      1  O   UNL     1       0.664   0.775   1.685  1.00  0.00    +0.000 OA
ATOM      2  C   UNL     1       1.605   0.438   0.970  1.00  0.00    +0.000 A 
ATOM      3  C   UNL     1       2.946   0.986   1.291  1.00  0.00    +0.000 A 
ATOM      4  C   UNL     1       3.973   0.716   0.469  1.00  0.00    +0.000 A 
ATOM      5  O   UNL     1       3.857  -0.054  -0.674  1.00  0.00    +0.000 OA
ATOM      6  C   UNL     1       2.643  -0.613  -0.984  1.00  0.00    +0.000 A 
ATOM      7  C   UNL     1       2.606  -1.371  -2.152  1.00  0.00    +0.000 A 
ATOM      8  C   UNL     1       1.428  -1.978  -2.552  1.00  0.00    +0.000 A 
ATOM      9  C   UNL     1       0.276  -1.855  -1.789  1.00  0.00    +0.000 A 
ATOM     10  C   UNL     1       0.283  -1.117  -0.582  1.00  0.00    +0.000 A 
ATOM     11  C   UNL     1       1.486  -0.460  -0.206  1.00  0.00    +0.000 A 
ENDROOT
BRANCH  10  12
ATOM     12  C   UNL     1      -1.018  -1.032   0.229  1.00  0.00    +0.000 C 
ATOM     13  C   UNL     1      -1.801  -2.333   0.339  1.00  0.00    +0.000 A 
ATOM     14  C   UNL     1      -1.158  -3.541   0.683  1.00  0.00    +0.000 A 
ATOM     15  C   UNL     1      -1.876  -4.737   0.779  1.00  0.00    +0.000 A 
ATOM     16  C   UNL     1      -3.241  -4.730   0.546  1.00  0.00    +0.000 A 
ATOM     17  C   UNL     1      -3.894  -3.544   0.239  1.00  0.00    +0.000 A 
ATOM     18  C   UNL     1      -3.188  -2.344   0.159  1.00  0.00    +0.000 A 
ATOM     19  O   UNL     1      -3.929  -1.229  -0.114  1.00  0.00    +0.000 OA
ATOM     20  C   UNL     1      -3.310   0.007   0.282  1.00  0.00    +0.000 C 
ATOM     21  C   UNL     1      -1.897   0.120  -0.328  1.00  0.00    +0.000 C 
BRANCH  20  22
ATOM     22  C   UNL     1      -4.312   1.090  -0.094  1.00  0.00    +0.000 A 
ATOM     23  C   UNL     1      -4.180   1.905  -1.234  1.00  0.00    +0.000 A 
ATOM     24  C   UNL     1      -5.144   2.871  -1.548  1.00  0.00    +0.000 A 
ATOM     25  C   UNL     1      -6.251   3.021  -0.726  1.00  0.00    +0.000 A 
ATOM     26  C   UNL     1      -6.401   2.216   0.398  1.00  0.00    +0.000 A 
ATOM     27  C   UNL     1      -5.450   1.257   0.718  1.00  0.00    +0.000 A 
BRANCH  25  28
ATOM     28  O   UNL     1      -7.225   3.946  -0.982  1.00  0.00    +0.000 OA
ATOM     29  H   UNL     1      -6.977   4.426  -1.790  1.00  0.00    +0.000 HD
ENDBRANCH  25  28
BRANCH  26  30
ATOM     30  O   UNL     1      -7.495   2.363   1.202  1.00  0.00    +0.000 OA
ATOM     31  H   UNL     1      -8.009   3.081   0.783  1.00  0.00    +0.000 HD
ENDBRANCH  26  30
ENDBRANCH  20  22
BRANCH  16  32
ATOM     32  O   UNL     1      -3.944  -5.896   0.633  1.00  0.00    +0.000 OA
ATOM     33  H   UNL     1      -4.868  -5.641   0.436  1.00  0.00    +0.000 HD
ENDBRANCH  16  32
BRANCH  17  34
ATOM     34  O   UNL     1      -5.249  -3.579   0.034  1.00  0.00    +0.000 OA
ATOM     35  H   UNL     1      -5.500  -2.655  -0.170  1.00  0.00    +0.000 HD
ENDBRANCH  17  34
BRANCH  21  36
ATOM     36  O   UNL     1      -1.307   1.399  -0.045  1.00  0.00    +0.000 OA
ATOM     37  H   UNL     1      -0.893   1.360   0.844  1.00  0.00    +0.000 HD
ENDBRANCH  21  36
ENDBRANCH  10  12
BRANCH   4  38
ATOM     38  C   UNL     1       5.348   1.206   0.696  1.00  0.00    +0.000 A 
ATOM     39  C   UNL     1       6.430   0.311   0.589  1.00  0.00    +0.000 A 
ATOM     40  C   UNL     1       7.745   0.751   0.768  1.00  0.00    +0.000 A 
ATOM     41  C   UNL     1       7.977   2.086   1.051  1.00  0.00    +0.000 A 
ATOM     42  C   UNL     1       6.921   2.985   1.159  1.00  0.00    +0.000 A 
ATOM     43  C   UNL     1       5.609   2.558   0.978  1.00  0.00    +0.000 A 
BRANCH  41  44
ATOM     44  O   UNL     1       9.261   2.517   1.226  1.00  0.00    +0.000 OA
ATOM     45  H   UNL     1       9.175   3.472   1.417  1.00  0.00    +0.000 HD
ENDBRANCH  41  44
BRANCH  42  46
ATOM     46  O   UNL     1       7.223   4.289   1.444  1.00  0.00    +0.000 OA
ATOM     47  H   UNL     1       6.388   4.778   1.545  1.00  0.00    +0.000 HD
ENDBRANCH  42  46
ENDBRANCH   4  38
BRANCH   3  48
ATOM     48  O   UNL     1       3.053   1.758   2.434  1.00  0.00    +0.000 OA
ATOM     49  H   UNL     1       2.150   1.774   2.818  1.00  0.00    +0.000 HD
ENDBRANCH   3  48
BRANCH   7  50
ATOM     50  O   UNL     1       3.711  -1.536  -2.945  1.00  0.00    +0.000 OA
ATOM     51  H   UNL     1       4.434  -1.019  -2.539  1.00  0.00    +0.000 HD
ENDBRANCH   7  50
BRANCH   8  52
ATOM     52  O   UNL     1       1.387  -2.708  -3.704  1.00  0.00    +0.000 OA
ATOM     53  H   UNL     1       2.294  -2.665  -4.068  1.00  0.00    +0.000 HD
ENDBRANCH   8  52
TORSDOF 13
