REMARK  Name = /srv/my_project/app/compsite/backup/Dave/CORINA_stuff/newPDBs/SANC00252.pdb
AUTHORGENERATED BY OPEN BABEL 2.3.2
REMARK  6 active torsions:
REMARK  status: ('A' for Active; 'I' for Inactive)
REMARK    1  A    between atoms: C_2  and  C_3
REMARK    2  A    between atoms: C_3  and  C_4
REMARK    3  A    between atoms: C_3  and  C_6
REMARK    4  A    between atoms: C_6  and  C_9
REMARK    5  A    between atoms: C_10  and  C_11
REMARK    6  A    between atoms: C_11  and  C_13
REMARK                            x       y       z     vdW  Elec       q    Type
REMARK                         _______ _______ _______ _____ _____    ______ ____
ROOT
ATOM      1  C   UNL     1       0.946   1.175   0.419  1.00  0.00    +0.000 C 
ATOM      2 CL   UNL     1       1.162   2.395   1.728  1.00  0.00    +0.000 Cl
ENDROOT
BRANCH   1   3
ATOM      3  C   UNL     1       2.136   0.157   0.321  1.00  0.00    +0.000 C 
ATOM      4  C   UNL     1       3.474   0.887   0.095  1.00  0.00    +0.000 C 
ATOM      5 CL   UNL     1       2.318  -0.787   1.855  1.00  0.00    +0.000 Cl
BRANCH   3   7
ATOM      6  C   UNL     1       1.649  -2.089  -0.890  1.00  0.00    +0.000 C 
ATOM      7  C   UNL     1       1.923  -0.775  -0.877  1.00  0.00    +0.000 C 
ENDBRANCH   3   7
ENDBRANCH   1   3
BRANCH   1   8
ATOM      8  C   UNL     1      -0.417   0.543   0.624  1.00  0.00    +0.000 C 
ATOM      9  C   UNL     1      -1.448   0.686  -0.227  1.00  0.00    +0.000 C 
BRANCH   9  10
ATOM     10  C   UNL     1      -2.784   0.096  -0.124  1.00  0.00    +0.000 C 
ATOM     11  C   UNL     1      -3.683   0.423  -1.077  1.00  0.00    +0.000 C 
BRANCH  10  12
ATOM     12  C   UNL     1      -3.189  -0.864   0.985  1.00  0.00    +0.000 C 
ATOM     13 CL   UNL     1      -3.180  -0.087   2.584  1.00  0.00    +0.000 Cl
ATOM     14 CL   UNL     1      -2.211  -2.352   0.972  1.00  0.00    +0.000 Cl
ENDBRANCH  10  12
ENDBRANCH   9  10
ENDBRANCH   1   8
TORSDOF 5
