REMARK  Name = /srv/my_project/app/compsite/backup/Dave/CORINA_stuff/newPDBs/SANC00288.pdb
AUTHORGENERATED BY OPEN BABEL 2.3.2
REMARK  10 active torsions:
REMARK  status: ('A' for Active; 'I' for Inactive)
REMARK    1  A    between atoms: C_12  and  N_14
REMARK    2  A    between atoms: C_17  and  C_18
REMARK    3  A    between atoms: C_23  and  C_24
REMARK    4  A    between atoms: C_27  and  O_28
REMARK    5  A    between atoms: C_27  and  C_29
REMARK    6  A    between atoms: C_29  and  C_30
REMARK    7  A    between atoms: C_30  and  C_31
REMARK    8  A    between atoms: C_31  and  C_32
REMARK    9  A    between atoms: C_32  and  C_33
REMARK   10  A    between atoms: C_32  and  C_34
REMARK                            x       y       z     vdW  Elec       q    Type
REMARK                         _______ _______ _______ _____ _____    ______ ____
ROOT
ATOM      1  C   UNL     1       1.566  -2.958  -0.676  1.00  0.00    +0.000 C 
ATOM      2  C   UNL     1       0.059  -3.159  -0.452  1.00  0.00    +0.000 C 
ATOM      3  C   UNL     1      -0.522  -1.775  -0.735  1.00  0.00    +0.000 C 
ATOM      4  C   UNL     1      -1.949  -1.453  -0.274  1.00  0.00    +0.000 C 
ATOM      5  C   UNL     1      -2.958  -2.470  -0.820  1.00  0.00    +0.000 C 
ATOM      6  C   UNL     1      -4.394  -2.100  -0.464  1.00  0.00    +0.000 C 
ATOM      7  C   UNL     1      -4.737  -0.685  -0.945  1.00  0.00    +0.000 C 
ATOM      8  C   UNL     1      -6.224  -0.368  -0.693  1.00  0.00    +0.000 C 
ATOM      9  C   UNL     1      -6.613   1.082  -1.034  1.00  0.00    +0.000 C 
ATOM     10  C   UNL     1      -5.487   1.826  -1.751  1.00  0.00    +0.000 C 
ATOM     11  C   UNL     1      -4.137   1.781  -1.022  1.00  0.00    +0.000 C 
ATOM     12  C   UNL     1      -3.778   0.405  -0.373  1.00  0.00    +0.000 C 
ATOM     13  C   UNL     1      -3.929   0.534   1.166  1.00  0.00    +0.000 C 
ATOM     14  C   UNL     1      -2.299  -0.002  -0.737  1.00  0.00    +0.000 C 
ATOM     15  C   UNL     1      -1.222   1.018  -0.276  1.00  0.00    +0.000 C 
ATOM     16  C   UNL     1       0.212   0.602  -0.652  1.00  0.00    +0.000 C 
ATOM     17  C   UNL     1       0.551  -0.815  -0.158  1.00  0.00    +0.000 C 
ATOM     18  C   UNL     1       0.580  -0.827   1.392  1.00  0.00    +0.000 C 
ATOM     19  C   UNL     1       1.804  -1.449  -0.838  1.00  0.00    +0.000 C 
ATOM     20  C   UNL     1       3.233  -1.308  -0.325  1.00  0.00    +0.000 C 
ATOM     21  C   UNL     1       3.288  -2.419   0.724  1.00  0.00    +0.000 C 
ATOM     22  O   UNL     1       4.107  -2.516   1.625  1.00  0.00    +0.000 OA
ATOM     23  O   UNL     1       2.313  -3.350   0.477  1.00  0.00    +0.000 OA
ENDROOT
BRANCH   9  24
ATOM     24  N   UNL     1      -7.010   1.812   0.172  1.00  0.00    +0.000 NA
ATOM     25  H   UNL     1      -7.322   2.749  -0.081  1.00  0.00    +0.000 HD
ATOM     26  H   UNL     1      -7.808   1.350   0.605  1.00  0.00    +0.000 HD
ENDBRANCH   9  24
BRANCH  20  27
ATOM     27  O   UNL     1       4.093  -1.683  -1.417  1.00  0.00    +0.000 OA
ATOM     28  H   UNL     1       4.973  -1.876  -1.040  1.00  0.00    +0.000 HD
ENDBRANCH  20  27
BRANCH  20  29
ATOM     29  C   UNL     1       3.622   0.089   0.170  1.00  0.00    +0.000 C 
BRANCH  29  30
ATOM     30  C   UNL     1       5.135   0.320   0.330  1.00  0.00    +0.000 C 
BRANCH  30  31
ATOM     31  C   UNL     1       5.421   1.709   0.913  1.00  0.00    +0.000 C 
BRANCH  31  32
ATOM     32  C   UNL     1       6.913   1.956   1.205  1.00  0.00    +0.000 C 
ATOM     33  C   UNL     1       7.085   3.299   1.919  1.00  0.00    +0.000 C 
ATOM     34  C   UNL     1       7.769   1.932  -0.061  1.00  0.00    +0.000 C 
ENDBRANCH  31  32
ENDBRANCH  30  31
ENDBRANCH  29  30
ENDBRANCH  20  29
TORSDOF 6
