REMARK  Name = /srv/my_project/app/compsite/backup/Dave/CORINA_stuff/newPDBs/SANC00163.pdb
AUTHORGENERATED BY OPEN BABEL 2.3.2
REMARK  16 active torsions:
REMARK  status: ('A' for Active; 'I' for Inactive)
REMARK    1  A    between atoms: C_1  and  C_2
REMARK    2  A    between atoms: C_2  and  C_3
REMARK    3  A    between atoms: C_3  and  C_4
REMARK    4  A    between atoms: C_4  and  C_6
REMARK    5  A    between atoms: C_4  and  C_7
REMARK    6  A    between atoms: C_7  and  C_8
REMARK    7  A    between atoms: C_8  and  C_10
REMARK    8  A    between atoms: C_8  and  C_11
REMARK    9  A    between atoms: C_11  and  C_12
REMARK   10  A    between atoms: C_12  and  C_14
REMARK   11  A    between atoms: C_12  and  C_15
REMARK   12  A    between atoms: C_16  and  C_17
REMARK   13  A    between atoms: C_16  and  C_18
REMARK   14  A    between atoms: C_19  and  C_20
REMARK   15  A    between atoms: C_23  and  C_24
REMARK   16  A    between atoms: C_23  and  O_25
REMARK                            x       y       z     vdW  Elec       q    Type
REMARK                         _______ _______ _______ _____ _____    ______ ____
ROOT
ATOM      1  C   UNL     1       1.697  -0.644   2.012  1.00  0.00    +0.000 C 
ATOM      2  C   UNL     1       3.031  -0.651   1.816  1.00  0.00    +0.000 C 
ATOM      3  C   UNL     1       3.956  -1.344   2.784  1.00  0.00    +0.000 C 
ENDROOT
BRANCH   2   4
ATOM      4  C   UNL     1       3.713  -0.038   0.702  1.00  0.00    +0.000 C 
ATOM      5  C   UNL     1       3.849  -0.550  -0.523  1.00  0.00    +0.000 C 
ATOM      6  C   UNL     1       3.418  -1.810  -1.157  1.00  0.00    +0.000 C 
ATOM      7  C   UNL     1       4.590   0.501  -1.214  1.00  0.00    +0.000 C 
ATOM      8  O   UNL     1       4.842   0.471  -2.410  1.00  0.00    +0.000 OA
ATOM      9  C   UNL     1       4.922   1.624  -0.239  1.00  0.00    +0.000 C 
ATOM     10  C   UNL     1       6.423   1.691   0.006  1.00  0.00    +0.000 C 
ATOM     11  O   UNL     1       4.272   1.206   0.973  1.00  0.00    +0.000 OA
BRANCH   9  12
ATOM     12  O   UNL     1       4.469   2.904  -0.631  1.00  0.00    +0.000 OA
ATOM     13  H   UNL     1       3.634   2.767  -1.108  1.00  0.00    +0.000 HD
ENDBRANCH   9  12
ENDBRANCH   2   4
BRANCH   1  14
ATOM     14  C   UNL     1       0.557   0.012   1.248  1.00  0.00    +0.000 C 
ATOM     15  C   UNL     1       0.907   1.292   0.485  1.00  0.00    +0.000 C 
BRANCH  14  16
ATOM     16  C   UNL     1      -0.131  -1.045   0.355  1.00  0.00    +0.000 C 
BRANCH  16  17
ATOM     17  C   UNL     1      -1.381  -0.580  -0.439  1.00  0.00    +0.000 C 
ATOM     18  C   UNL     1      -1.814  -1.728  -1.356  1.00  0.00    +0.000 C 
BRANCH  17  19
ATOM     19  C   UNL     1      -2.506  -0.111   0.512  1.00  0.00    +0.000 C 
BRANCH  19  20
ATOM     20  C   UNL     1      -3.819   0.455  -0.089  1.00  0.00    +0.000 C 
ATOM     21  C   UNL     1      -3.566   1.400  -1.264  1.00  0.00    +0.000 C 
BRANCH  20  22
ATOM     22  C   UNL     1      -4.848  -0.650  -0.409  1.00  0.00    +0.000 C 
BRANCH  22  24
ATOM     23  C   UNL     1      -6.946   0.685   0.193  1.00  0.00    +0.000 C 
ATOM     24  C   UNL     1      -6.232  -0.159  -0.850  1.00  0.00    +0.000 C 
ENDBRANCH  22  24
ENDBRANCH  20  22
ENDBRANCH  19  20
ENDBRANCH  17  19
ENDBRANCH  16  17
ENDBRANCH  14  16
ENDBRANCH   1  14
TORSDOF 9
