REMARK  Name = SANCDB_01077_minRM1.pdb
AUTHORGENERATED BY OPEN BABEL 2.3.2
REMARK  4 active torsions:
REMARK  status: ('A' for Active; 'I' for Inactive)
REMARK    1  A    between atoms: C_1  and  C_2
REMARK    2  A    between atoms: C_2  and  C_3
REMARK    3  A    between atoms: C_2  and  C_4
REMARK    4  A    between atoms: C_2  and  O_18
REMARK                            x       y       z     vdW  Elec       q    Type
REMARK                         _______ _______ _______ _____ _____    ______ ____
ROOT
ATOM      1  C   UNL     1      -1.596  -0.615   0.764  1.00  0.00    +0.000 C 
ATOM      2  C   UNL     1      -0.947   0.772   0.917  1.00  0.00    +0.000 C 
ATOM      3  C   UNL     1       0.420   0.453   0.442  1.00  0.00    +0.000 A 
ATOM      4  C   UNL     1       0.410  -0.777  -0.200  1.00  0.00    +0.000 A 
ATOM      5  O   UNL     1      -0.813  -1.391  -0.195  1.00  0.00    +0.000 OA
ATOM      6  C   UNL     1       1.537  -1.299  -0.797  1.00  0.00    +0.000 A 
ATOM      7  C   UNL     1       2.702  -0.539  -0.717  1.00  0.00    +0.000 A 
ATOM      8  C   UNL     1       2.740   0.707  -0.071  1.00  0.00    +0.000 A 
ATOM      9  C   UNL     1       1.576   1.216   0.515  1.00  0.00    +0.000 A 
ATOM     10  C   UNL     1       3.996   1.439  -0.037  1.00  0.00    +0.000 A 
ATOM     11  C   UNL     1       5.082   0.916  -0.615  1.00  0.00    +0.000 A 
ATOM     12  C   UNL     1       5.066  -0.390  -1.298  1.00  0.00    +0.000 A 
ATOM     13  O   UNL     1       6.084  -0.835  -1.816  1.00  0.00    +0.000 OA
ATOM     14  O   UNL     1       3.859  -1.073  -1.321  1.00  0.00    +0.000 OA
ENDROOT
BRANCH   1  16
ATOM     15  C   UNL     1      -3.952   0.176   1.302  1.00  0.00    +0.000 C 
ATOM     16  C   UNL     1      -3.079  -0.611   0.323  1.00  0.00    +0.000 C 
ATOM     17  C   UNL     1      -3.287  -0.097  -1.106  1.00  0.00    +0.000 C 
BRANCH  16  18
ATOM     18  O   UNL     1      -3.552  -1.969   0.347  1.00  0.00    +0.000 OA
ATOM     19  H   UNL     1      -2.911  -2.494  -0.171  1.00  0.00    +0.000 HD
ENDBRANCH  16  18
ENDBRANCH   1  16
TORSDOF 2
