REMARK  Name = SANCDB_00907_minRM1.pdb
AUTHORGENERATED BY OPEN BABEL 2.3.2
REMARK  5 active torsions:
REMARK  status: ('A' for Active; 'I' for Inactive)
REMARK    1  A    between atoms: C_1  and  C_2
REMARK    2  A    between atoms: C_5  and  O_27
REMARK    3  A    between atoms: C_14  and  C_26
REMARK    4  A    between atoms: C_15  and  O_25
REMARK    5  A    between atoms: C_18  and  C_19
REMARK                            x       y       z     vdW  Elec       q    Type
REMARK                         _______ _______ _______ _____ _____    ______ ____
ROOT
ATOM      1  C   UNL     1      -2.361  -1.825  -1.788  1.00  0.00    +0.000 C 
ATOM      2  C   UNL     1      -2.265  -0.977  -0.486  1.00  0.00    +0.000 C 
ATOM      3  C   UNL     1      -2.727  -1.847   0.717  1.00  0.00    +0.000 C 
ATOM      4  C   UNL     1      -4.206  -2.232   0.691  1.00  0.00    +0.000 C 
ATOM      5  C   UNL     1      -5.091  -0.991   0.600  1.00  0.00    +0.000 C 
ATOM      6  C   UNL     1      -4.713  -0.118  -0.600  1.00  0.00    +0.000 C 
ATOM      7  C   UNL     1      -3.230   0.195  -0.647  1.00  0.00    +0.000 C 
ATOM      8  C   UNL     1      -2.817   1.455  -0.841  1.00  0.00    +0.000 C 
ATOM      9  C   UNL     1      -1.389   1.873  -0.913  1.00  0.00    +0.000 C 
ATOM     10  C   UNL     1      -0.378   0.729  -1.143  1.00  0.00    +0.000 C 
ATOM     11  C   UNL     1      -0.742  -0.550  -0.334  1.00  0.00    +0.000 C 
ATOM     12  C   UNL     1      -0.160  -0.427   1.077  1.00  0.00    +0.000 C 
ATOM     13  C   UNL     1       1.379  -0.330   1.072  1.00  0.00    +0.000 C 
ATOM     14  C   UNL     1       2.034   0.181  -0.248  1.00  0.00    +0.000 C 
ATOM     15  C   UNL     1       1.099   1.214  -0.936  1.00  0.00    +0.000 C 
ATOM     16  C   UNL     1       1.306   2.462  -0.054  1.00  0.00    +0.000 C 
ATOM     17  C   UNL     1       2.775   2.447   0.375  1.00  0.00    +0.000 C 
ATOM     18  C   UNL     1       3.317   1.042   0.040  1.00  0.00    +0.000 C 
ATOM     19  C   UNL     1       2.408  -0.988  -1.188  1.00  0.00    +0.000 C 
ENDROOT
BRANCH  18  20
ATOM     20  C   UNL     1       4.327   0.475   1.005  1.00  0.00    +0.000 C 
ATOM     21  C   UNL     1       4.575   0.822   2.268  1.00  0.00    +0.000 C 
ATOM     22  C   UNL     1       5.697   0.010   2.734  1.00  0.00    +0.000 C 
ATOM     23  O   UNL     1       6.175   0.062   3.852  1.00  0.00    +0.000 OA
ATOM     24  O   UNL     1       6.113  -0.795   1.724  1.00  0.00    +0.000 OA
ATOM     25  C   UNL     1       5.288  -0.574   0.581  1.00  0.00    +0.000 C 
ENDBRANCH  18  20
BRANCH  15  26
ATOM     26  O   UNL     1       1.633   1.538  -2.231  1.00  0.00    +0.000 OA
ATOM     27  H   UNL     1       1.059   2.211  -2.635  1.00  0.00    +0.000 HD
ENDBRANCH  15  26
BRANCH   5  28
ATOM     28  O   UNL     1      -6.457  -1.390   0.503  1.00  0.00    +0.000 OA
ATOM     29  H   UNL     1      -6.554  -1.937  -0.295  1.00  0.00    +0.000 HD
ENDBRANCH   5  28
TORSDOF 3
