REMARK  Name = SANCDB_00992_minRM1.pdb
AUTHORGENERATED BY OPEN BABEL 2.3.2
REMARK  5 active torsions:
REMARK  status: ('A' for Active; 'I' for Inactive)
REMARK    1  A    between atoms: C_3  and  O_21
REMARK    2  A    between atoms: C_4  and  O_20
REMARK    3  A    between atoms: C_6  and  C_7
REMARK    4  A    between atoms: C_12  and  O_19
REMARK    5  A    between atoms: C_14  and  O_18
REMARK                            x       y       z     vdW  Elec       q    Type
REMARK                         _______ _______ _______ _____ _____    ______ ____
ROOT
ATOM      1  C   UNL     1       0.307  -0.519  -0.116  1.00  0.00    +0.000 A 
ATOM      2  C   UNL     1      -0.250  -1.736  -0.191  1.00  0.00    +0.000 A 
ATOM      3  C   UNL     1      -1.715  -1.847  -0.223  1.00  0.00    +0.000 A 
ATOM      4  O   UNL     1      -2.277  -2.936  -0.280  1.00  0.00    +0.000 OA
ATOM      5  C   UNL     1      -2.482  -0.597  -0.181  1.00  0.00    +0.000 A 
ATOM      6  C   UNL     1      -3.881  -0.592  -0.208  1.00  0.00    +0.000 A 
ATOM      7  C   UNL     1      -4.579   0.613  -0.168  1.00  0.00    +0.000 A 
ATOM      8  C   UNL     1      -3.866   1.808  -0.100  1.00  0.00    +0.000 A 
ATOM      9  C   UNL     1      -2.474   1.814  -0.072  1.00  0.00    +0.000 A 
ATOM     10  C   UNL     1      -1.781   0.604  -0.113  1.00  0.00    +0.000 A 
ATOM     11  O   UNL     1      -0.410   0.667  -0.082  1.00  0.00    +0.000 OA
ENDROOT
BRANCH   1  17
ATOM     12  C   UNL     1       2.595  -1.135   0.730  1.00  0.00    +0.000 A 
ATOM     13  C   UNL     1       3.982  -0.951   0.756  1.00  0.00    +0.000 A 
ATOM     14  C   UNL     1       4.548   0.037  -0.037  1.00  0.00    +0.000 A 
ATOM     15  C   UNL     1       3.743   0.835  -0.844  1.00  0.00    +0.000 A 
ATOM     16  C   UNL     1       2.365   0.660  -0.875  1.00  0.00    +0.000 A 
ATOM     17  C   UNL     1       1.772  -0.339  -0.090  1.00  0.00    +0.000 A 
BRANCH  15  18
ATOM     18  O   UNL     1       4.307   1.807  -1.620  1.00  0.00    +0.000 OA
ATOM     19  H   UNL     1       5.265   1.746  -1.434  1.00  0.00    +0.000 HD
ENDBRANCH  15  18
BRANCH  14  20
ATOM     20  O   UNL     1       5.895   0.268  -0.057  1.00  0.00    +0.000 OA
ATOM     21  H   UNL     1       6.320  -0.357   0.556  1.00  0.00    +0.000 HD
ENDBRANCH  14  20
ENDBRANCH   1  17
BRANCH   8  22
ATOM     22  O   UNL     1      -4.505   3.012  -0.058  1.00  0.00    +0.000 OA
ATOM     23  H   UNL     1      -5.464   2.860  -0.089  1.00  0.00    +0.000 HD
ENDBRANCH   8  22
BRANCH   6  24
ATOM     24  O   UNL     1      -4.630  -1.736  -0.275  1.00  0.00    +0.000 OA
ATOM     25  H   UNL     1      -4.015  -2.504  -0.300  1.00  0.00    +0.000 HD
ENDBRANCH   6  24
TORSDOF 5
