REMARK  Name = SANCDB_00805_minRM1.pdb
AUTHORGENERATED BY OPEN BABEL 2.3.2
REMARK  4 active torsions:
REMARK  status: ('A' for Active; 'I' for Inactive)
REMARK    1  A    between atoms: C_1  and  C_2
REMARK    2  A    between atoms: C_2  and  C_3
REMARK    3  A    between atoms: C_3  and  C_4
REMARK    4  A    between atoms: N_9  and  C_10
REMARK                            x       y       z     vdW  Elec       q    Type
REMARK                         _______ _______ _______ _____ _____    ______ ____
ROOT
ATOM      1  C   UNL     1       0.001   0.544  -0.687  1.00  0.00    +0.000 C 
ATOM      2  C   UNL     1      -0.558  -0.619  -1.533  1.00  0.00    +0.000 C 
ATOM      3  C   UNL     1      -1.456  -1.546  -0.720  1.00  0.00    +0.000 C 
ATOM      4  C   UNL     1      -2.562  -0.747  -0.042  1.00  0.00    +0.000 C 
ATOM      5  C   UNL     1      -2.009   0.449   0.735  1.00  0.00    +0.000 C 
ATOM      6  N   UNL     1      -1.145   1.282  -0.109  1.00  0.00    +0.000 NA
ATOM      7  C   UNL     1      -0.760   2.510   0.580  1.00  0.00    +0.000 C 
ENDROOT
BRANCH   1   8
ATOM      8  C   UNL     1       1.065   0.098   0.349  1.00  0.00    +0.000 C 
BRANCH   8  10
ATOM      9  C   UNL     1       3.368  -0.850   0.754  1.00  0.00    +0.000 C 
ATOM     10  C   UNL     1       2.280  -0.596  -0.279  1.00  0.00    +0.000 C 
ENDBRANCH   8  10
ENDBRANCH   1   8
TORSDOF 2
