REMARK  Name = SANCDB_00739_minRM1.pdb
AUTHORGENERATED BY OPEN BABEL 2.3.2
REMARK  3 active torsions:
REMARK  status: ('A' for Active; 'I' for Inactive)
REMARK    1  A    between atoms: C_1  and  C_2
REMARK    2  A    between atoms: C_6  and  C_7
REMARK    3  A    between atoms: C_12  and  C_13
REMARK                            x       y       z     vdW  Elec       q    Type
REMARK                         _______ _______ _______ _____ _____    ______ ____
ROOT
ATOM      1  C   UNL     1      -1.053  -3.822  -0.284  1.00  0.00    +0.000 C 
ATOM      2  C   UNL     1      -0.772  -2.357  -0.527  1.00  0.00    +0.000 C 
ATOM      3  C   UNL     1       0.466  -1.979  -0.956  1.00  0.00    +0.000 C 
ATOM      4  C   UNL     1       1.058  -0.638  -1.409  1.00  0.00    +0.000 C 
ATOM      5  C   UNL     1       1.494   0.314  -0.315  1.00  0.00    +0.000 A 
ATOM      6  C   UNL     1       2.586   0.095   0.597  1.00  0.00    +0.000 A 
ATOM      7  C   UNL     1       3.484  -1.084   0.667  1.00  0.00    +0.000 C 
ATOM      8  C   UNL     1       2.630   1.204   1.412  1.00  0.00    +0.000 A 
ATOM      9  O   UNL     1       1.668   2.091   1.080  1.00  0.00    +0.000 OA
ATOM     10  C   UNL     1       0.964   1.568   0.034  1.00  0.00    +0.000 A 
ATOM     11  C   UNL     1      -0.169   2.452  -0.456  1.00  0.00    +0.000 C 
ATOM     12  C   UNL     1      -1.571   2.346   0.203  1.00  0.00    +0.000 C 
ATOM     13  C   UNL     1      -2.207   3.660   0.560  1.00  0.00    +0.000 C 
ATOM     14  C   UNL     1      -2.216   1.175   0.434  1.00  0.00    +0.000 C 
ATOM     15  C   UNL     1      -1.494  -0.072   0.090  1.00  0.00    +0.000 C 
ATOM     16  C   UNL     1      -1.988  -1.467  -0.190  1.00  0.00    +0.000 C 
ENDROOT
TORSDOF 0
