REMARK  Name = /srv/my_project/app/compsite/backup/Dave/CORINA_stuff/newPDBs/SANC00145.pdb
AUTHORGENERATED BY OPEN BABEL 2.3.2
REMARK  16 active torsions:
REMARK  status: ('A' for Active; 'I' for Inactive)
REMARK    1  A    between atoms: C_1  and  C_2
REMARK    2  A    between atoms: C_2  and  C_3
REMARK    3  A    between atoms: C_3  and  C_4
REMARK    4  A    between atoms: C_4  and  C_5
REMARK    5  A    between atoms: C_5  and  C_6
REMARK    6  A    between atoms: C_6  and  C_7
REMARK    7  A    between atoms: C_7  and  C_8
REMARK    8  A    between atoms: C_8  and  C_9
REMARK    9  A    between atoms: C_10  and  C_11
REMARK   10  A    between atoms: C_11  and  C_12
REMARK   11  A    between atoms: C_12  and  C_13
REMARK   12  A    between atoms: C_12  and  O_18
REMARK   13  A    between atoms: C_13  and  N_14
REMARK   14  A    between atoms: C_15  and  C_16
REMARK   15  A    between atoms: O_18  and  C_19
REMARK   16  A    between atoms: C_19  and  C_20
REMARK                            x       y       z     vdW  Elec       q    Type
REMARK                         _______ _______ _______ _____ _____    ______ ____
ROOT
ATOM      1  C   UNL     1      -1.322  -0.424  -0.843  1.00  0.00    +0.000 C 
ENDROOT
BRANCH   1   3
ATOM      2  C   UNL     1       0.076   0.039   1.192  1.00  0.00    +0.000 C 
ATOM      3  C   UNL     1      -0.467  -0.831   0.327  1.00  0.00    +0.000 C 
BRANCH   2   4
ATOM      4  C   UNL     1       0.947  -0.274   2.382  1.00  0.00    +0.000 C 
BRANCH   4   5
ATOM      5  C   UNL     1       1.549  -1.678   2.499  1.00  0.00    +0.000 C 
BRANCH   5   6
ATOM      6  C   UNL     1       2.573  -2.075   1.426  1.00  0.00    +0.000 C 
BRANCH   6   7
ATOM      7  C   UNL     1       3.838  -1.210   1.395  1.00  0.00    +0.000 C 
BRANCH   7   8
ATOM      8  C   UNL     1       3.794  -0.121   0.318  1.00  0.00    +0.000 C 
BRANCH   8   9
ATOM      9  C   UNL     1       5.085   0.702   0.310  1.00  0.00    +0.000 C 
BRANCH   9  11
ATOM     10  C   UNL     1       4.970   1.439  -2.131  1.00  0.00    +0.000 C 
ATOM     11  C   UNL     1       5.052   1.872  -0.675  1.00  0.00    +0.000 C 
ENDBRANCH   9  11
ENDBRANCH   8   9
ENDBRANCH   7   8
ENDBRANCH   6   7
ENDBRANCH   5   6
ENDBRANCH   4   5
ENDBRANCH   2   4
ENDBRANCH   1   3
BRANCH   1  12
ATOM     12  C   UNL     1      -2.732  -1.042  -0.831  1.00  0.00    +0.000 C 
BRANCH  12  13
ATOM     13  C   UNL     1      -3.560  -0.664   0.419  1.00  0.00    +0.000 C 
BRANCH  13  14
ATOM     14  N   UNL     1      -3.663   0.770   0.648  1.00  0.00    +0.000 N 
ATOM     15  C   UNL     1      -4.625   1.546   0.044  1.00  0.00    +0.000 C 
ATOM     16  C   UNL     1      -4.513   3.015   0.356  1.00  0.00    +0.000 C 
ATOM     17  O   UNL     1      -5.498   1.106  -0.696  1.00  0.00    +0.000 OA
ATOM     18  H   UNL     1      -2.921   1.217   1.171  1.00  0.00    +0.000 HD
ENDBRANCH  13  14
ENDBRANCH  12  13
BRANCH  12  19
ATOM     19  O   UNL     1      -3.393  -0.596  -2.036  1.00  0.00    +0.000 OA
BRANCH  19  20
ATOM     20  C   UNL     1      -4.452  -1.351  -2.438  1.00  0.00    +0.000 C 
ATOM     21  C   UNL     1      -5.106  -0.729  -3.633  1.00  0.00    +0.000 C 
ATOM     22  O   UNL     1      -4.799  -2.409  -1.929  1.00  0.00    +0.000 OA
ENDBRANCH  19  20
ENDBRANCH  12  19
ENDBRANCH   1  12
TORSDOF 13
