REMARK  Name = /srv/my_project/app/compsite/backup/Dave/CORINA_stuff/newPDBs/SANC00348.pdb
AUTHORGENERATED BY OPEN BABEL 2.3.2
REMARK  9 active torsions:
REMARK  status: ('A' for Active; 'I' for Inactive)
REMARK    1  A    between atoms: C_1  and  C_2
REMARK    2  A    between atoms: C_2  and  C_3
REMARK    3  A    between atoms: C_4  and  C_5
REMARK    4  A    between atoms: C_5  and  C_6
REMARK    5  A    between atoms: C_7  and  O_8
REMARK    6  A    between atoms: C_18  and  C_19
REMARK    7  A    between atoms: C_18  and  C_20
REMARK    8  A    between atoms: C_26  and  O_27
REMARK    9  A    between atoms: C_31  and  O_32
REMARK                            x       y       z     vdW  Elec       q    Type
REMARK                         _______ _______ _______ _____ _____    ______ ____
ROOT
ATOM      1  C   UNL     1       3.969   0.368   1.105  1.00  0.00    +0.000 A 
ATOM      2  C   UNL     1       4.105  -1.011   1.349  1.00  0.00    +0.000 A 
ATOM      3  C   UNL     1       2.997  -1.854   1.446  1.00  0.00    +0.000 A 
ATOM      4  C   UNL     1       1.718  -1.339   1.268  1.00  0.00    +0.000 A 
ATOM      5  O   UNL     1       0.682  -2.251   1.337  1.00  0.00    +0.000 OA
ATOM      6  C   UNL     1      -0.483  -1.723   0.697  1.00  0.00    +0.000 C 
ATOM      7  O   UNL     1      -1.655  -2.578   0.709  1.00  0.00    +0.000 OA
ATOM      8  C   UNL     1      -2.656  -1.650   0.489  1.00  0.00    +0.000 A 
ATOM      9  C   UNL     1      -3.921  -1.958   0.039  1.00  0.00    +0.000 A 
ATOM     10  C   UNL     1      -4.816  -0.903  -0.155  1.00  0.00    +0.000 A 
ATOM     11  O   UNL     1      -6.052  -1.258  -0.618  1.00  0.00    +0.000 OA
ATOM     12  C   UNL     1      -7.058  -0.240  -0.795  1.00  0.00    +0.000 C 
ATOM     13  C   UNL     1      -7.533  -0.357  -2.248  1.00  0.00    +0.000 C 
ATOM     14  C   UNL     1      -8.209  -0.596   0.154  1.00  0.00    +0.000 C 
ATOM     15  C   UNL     1      -6.614   1.181  -0.531  1.00  0.00    +0.000 C 
ATOM     16  C   UNL     1      -5.389   1.504  -0.108  1.00  0.00    +0.000 C 
ATOM     17  C   UNL     1      -4.436   0.428   0.110  1.00  0.00    +0.000 A 
ATOM     18  C   UNL     1      -3.148   0.716   0.587  1.00  0.00    +0.000 A 
ATOM     19  C   UNL     1      -2.269  -0.338   0.770  1.00  0.00    +0.000 A 
ATOM     20  C   UNL     1      -0.900  -0.389   1.341  1.00  0.00    +0.000 C 
ATOM     21  C   UNL     1       0.168   0.575   0.914  1.00  0.00    +0.000 C 
ATOM     22  O   UNL     1      -0.024   1.738   0.565  1.00  0.00    +0.000 OA
ATOM     23  C   UNL     1       1.550   0.037   1.027  1.00  0.00    +0.000 A 
ATOM     24  C   UNL     1       2.670   0.878   0.932  1.00  0.00    +0.000 A 
ENDROOT
BRANCH   2  25
ATOM     25  O   UNL     1       5.321  -1.618   1.498  1.00  0.00    +0.000 OA
ATOM     26  H   UNL     1       6.006  -1.052   1.104  1.00  0.00    +0.000 HD
ENDBRANCH   2  25
BRANCH  20  27
ATOM     27  O   UNL     1      -0.990  -0.423   2.764  1.00  0.00    +0.000 OA
ATOM     28  H   UNL     1      -1.638   0.251   3.033  1.00  0.00    +0.000 HD
ENDBRANCH  20  27
BRANCH  24  29
ATOM     29  O   UNL     1       2.536   2.220   0.674  1.00  0.00    +0.000 OA
ATOM     30  H   UNL     1       1.584   2.433   0.554  1.00  0.00    +0.000 HD
ENDBRANCH  24  29
BRANCH   1  31
ATOM     31  C   UNL     1       5.174   1.286   1.044  1.00  0.00    +0.000 C 
BRANCH  31  35
ATOM     32  C   UNL     1       8.240   0.642   0.585  1.00  0.00    +0.000 C 
ATOM     33  C   UNL     1       7.210   0.896  -0.481  1.00  0.00    +0.000 C 
ATOM     34  C   UNL     1       7.753   0.832  -1.887  1.00  0.00    +0.000 C 
ATOM     35  C   UNL     1       5.909   1.177  -0.268  1.00  0.00    +0.000 C 
ENDBRANCH  31  35
ENDBRANCH   1  31
TORSDOF 5
