REMARK  Name = /srv/my_project/app/compsite/backup/Dave/CORINA_stuff/newPDBs/SANC00654.pdb
AUTHORGENERATED BY OPEN BABEL 2.3.2
REMARK  7 active torsions:
REMARK  status: ('A' for Active; 'I' for Inactive)
REMARK    1  A    between atoms: C_1  and  C_2
REMARK    2  A    between atoms: C_2  and  O_4
REMARK    3  A    between atoms: O_4  and  C_5
REMARK    4  A    between atoms: C_7  and  O_28
REMARK    5  A    between atoms: C_20  and  O_26
REMARK    6  A    between atoms: C_21  and  O_25
REMARK    7  A    between atoms: O_26  and  C_27
REMARK                            x       y       z     vdW  Elec       q    Type
REMARK                         _______ _______ _______ _____ _____    ______ ____
ROOT
ATOM      1  C   UNL     1      -1.360   0.793  -0.578  1.00  0.00    +0.000 C 
ATOM      2  C   UNL     1      -2.832   0.339  -0.835  1.00  0.00    +0.000 C 
ATOM      3  C   UNL     1      -3.201  -1.000  -0.239  1.00  0.00    +0.000 C 
ATOM      4  C   UNL     1      -2.306  -1.770   0.398  1.00  0.00    +0.000 C 
ATOM      5  C   UNL     1      -2.448  -3.185   0.849  1.00  0.00    +0.000 C 
ATOM      6  C   UNL     1      -1.075  -3.736   0.455  1.00  0.00    +0.000 C 
ATOM      7  N   UNL     1      -0.130  -2.645   0.737  1.00  0.00    +0.000 NA
ATOM      8  C   UNL     1      -0.869  -1.379   0.569  1.00  0.00    +0.000 C 
ATOM      9  C   UNL     1      -0.418  -0.438  -0.571  1.00  0.00    +0.000 C 
ATOM     10  C   UNL     1       1.079  -0.224  -0.416  1.00  0.00    +0.000 A 
ATOM     11  C   UNL     1       1.726   1.010  -0.575  1.00  0.00    +0.000 A 
ATOM     12  C   UNL     1       3.111   1.095  -0.418  1.00  0.00    +0.000 A 
ATOM     13  C   UNL     1       3.835  -0.066  -0.115  1.00  0.00    +0.000 A 
ATOM     14  C   UNL     1       3.216  -1.301   0.029  1.00  0.00    +0.000 A 
ATOM     15  C   UNL     1       1.831  -1.388  -0.118  1.00  0.00    +0.000 A 
ATOM     16  C   UNL     1       1.106  -2.721  -0.045  1.00  0.00    +0.000 C 
ENDROOT
BRANCH  13  17
ATOM     17  O   UNL     1       5.195  -0.006   0.036  1.00  0.00    +0.000 OA
ATOM     18  H   UNL     1       5.419   0.934  -0.105  1.00  0.00    +0.000 HD
ENDBRANCH  13  17
BRANCH  12  19
ATOM     19  O   UNL     1       3.870   2.232  -0.536  1.00  0.00    +0.000 OA
ATOM     20  C   UNL     1       3.176   3.430  -0.866  1.00  0.00    +0.000 C 
ENDBRANCH  12  19
BRANCH   2  21
ATOM     21  O   UNL     1      -3.022   0.205  -2.245  1.00  0.00    +0.000 OA
ATOM     22  H   UNL     1      -3.979   0.140  -2.399  1.00  0.00    +0.000 HD
ENDBRANCH   2  21
BRANCH   1  23
ATOM     23  O   UNL     1      -1.260   1.465   0.703  1.00  0.00    +0.000 OA
BRANCH  23  25
ATOM     24  C   UNL     1      -1.466   3.328   2.105  1.00  0.00    +0.000 C 
ATOM     25  C   UNL     1      -1.653   2.765   0.730  1.00  0.00    +0.000 C 
ATOM     26  O   UNL     1      -2.095   3.391  -0.221  1.00  0.00    +0.000 OA
ENDBRANCH  23  25
ENDBRANCH   1  23
TORSDOF 5
