REMARK  Name = /srv/my_project/app/compsite/backup/Dave/CORINA_stuff/newPDBs/SANC00509.pdb
AUTHORGENERATED BY OPEN BABEL 2.3.2
REMARK  23 active torsions:
REMARK  status: ('A' for Active; 'I' for Inactive)
REMARK    1  A    between atoms: C_2  and  O_3
REMARK    2  A    between atoms: O_3  and  C_4
REMARK    3  A    between atoms: C_15  and  O_17
REMARK    4  A    between atoms: C_20  and  C_21
REMARK    5  A    between atoms: C_24  and  O_26
REMARK    6  A    between atoms: C_28  and  C_29
REMARK    7  A    between atoms: C_30  and  C_32
REMARK    8  A    between atoms: C_32  and  C_34
REMARK    9  A    between atoms: C_32  and  C_35
REMARK   10  A    between atoms: C_35  and  O_37
REMARK   11  A    between atoms: C_35  and  C_38
REMARK   12  A    between atoms: C_38  and  C_39
REMARK   13  A    between atoms: C_39  and  C_40
REMARK   14  A    between atoms: C_40  and  C_41
REMARK   15  A    between atoms: C_40  and  C_42
REMARK   16  A    between atoms: C_44  and  C_46
REMARK   17  A    between atoms: C_47  and  O_49
REMARK   18  A    between atoms: C_50  and  O_52
REMARK   19  A    between atoms: O_52  and  C_53
REMARK   20  A    between atoms: C_53  and  C_54
REMARK   21  A    between atoms: C_56  and  O_58
REMARK   22  A    between atoms: O_58  and  C_59
REMARK   23  A    between atoms: C_59  and  C_60
REMARK                            x       y       z     vdW  Elec       q    Type
REMARK                         _______ _______ _______ _____ _____    ______ ____
ROOT
ATOM      1  C   UNL     1      -0.339  -1.010   0.945  1.00  0.00    +0.000 C 
ATOM      2  C   UNL     1       0.926  -1.638   0.326  1.00  0.00    +0.000 C 
ATOM      3  C   UNL     1       1.895  -0.467   0.188  1.00  0.00    +0.000 C 
ATOM      4  C   UNL     1       3.116  -0.651  -0.720  1.00  0.00    +0.000 C 
ATOM      5  C   UNL     1       3.961  -1.840  -0.239  1.00  0.00    +0.000 C 
ATOM      6  C   UNL     1       5.308  -1.904  -0.879  1.00  0.00    +0.000 C 
ATOM      7  C   UNL     1       5.878  -0.894  -1.559  1.00  0.00    +0.000 C 
ATOM      8  C   UNL     1       7.241  -1.090  -2.188  1.00  0.00    +0.000 C 
ATOM      9  C   UNL     1       8.219   0.010  -1.780  1.00  0.00    +0.000 C 
ATOM     10  C   UNL     1       7.640   1.384  -2.085  1.00  0.00    +0.000 C 
ATOM     11  C   UNL     1       6.284   1.585  -1.407  1.00  0.00    +0.000 C 
ATOM     12  C   UNL     1       5.219   0.490  -1.727  1.00  0.00    +0.000 C 
ATOM     13  C   UNL     1       4.775   0.632  -3.203  1.00  0.00    +0.000 C 
ATOM     14  C   UNL     1       3.975   0.649  -0.741  1.00  0.00    +0.000 C 
ATOM     15  C   UNL     1       3.102   1.918  -0.977  1.00  0.00    +0.000 C 
ATOM     16  C   UNL     1       1.830   1.983  -0.107  1.00  0.00    +0.000 C 
ATOM     17  C   UNL     1       0.975   0.717  -0.209  1.00  0.00    +0.000 C 
ATOM     18  C   UNL     1       0.429   0.580  -1.649  1.00  0.00    +0.000 C 
ATOM     19  C   UNL     1      -0.114   0.544   0.902  1.00  0.00    +0.000 C 
ENDROOT
BRANCH   9  20
ATOM     20  O   UNL     1       9.444  -0.135  -2.497  1.00  0.00    +0.000 OA
ATOM     21  H   UNL     1       9.822  -0.997  -2.252  1.00  0.00    +0.000 HD
ENDBRANCH   9  20
BRANCH  15  22
ATOM     22  O   UNL     1       3.860   3.092  -0.687  1.00  0.00    +0.000 OA
ATOM     23  H   UNL     1       3.285   3.859  -0.854  1.00  0.00    +0.000 HD
ENDBRANCH  15  22
BRANCH  19  24
ATOM     24  C   UNL     1      -1.440   1.367   0.992  1.00  0.00    +0.000 C 
ATOM     25  C   UNL     1      -2.149   1.655  -0.332  1.00  0.00    +0.000 C 
BRANCH  24  26
ATOM     26  C   UNL     1      -1.264   2.659   1.845  1.00  0.00    +0.000 C 
BRANCH  26  27
ATOM     27  O   UNL     1      -0.448   3.592   1.148  1.00  0.00    +0.000 OA
ATOM     28  H   UNL     1      -0.199   4.294   1.771  1.00  0.00    +0.000 HD
ENDBRANCH  26  27
BRANCH  26  29
ATOM     29  C   UNL     1      -2.609   3.321   2.199  1.00  0.00    +0.000 C 
BRANCH  29  30
ATOM     30  C   UNL     1      -2.465   4.403   3.281  1.00  0.00    +0.000 C 
BRANCH  30  31
ATOM     31  C   UNL     1      -3.790   5.117   3.614  1.00  0.00    +0.000 C 
ATOM     32  C   UNL     1      -4.829   4.173   4.221  1.00  0.00    +0.000 C 
ATOM     33  C   UNL     1      -3.525   6.277   4.577  1.00  0.00    +0.000 C 
ENDBRANCH  30  31
ENDBRANCH  29  30
ENDBRANCH  26  29
ENDBRANCH  24  26
ENDBRANCH  19  24
BRANCH   1  34
ATOM     34  O   UNL     1      -1.518  -1.378   0.239  1.00  0.00    +0.000 OA
BRANCH  34  35
ATOM     35  C   UNL     1      -1.973  -2.702   0.515  1.00  0.00    +0.000 C 
ATOM     36  O   UNL     1      -1.364  -3.662  -0.355  1.00  0.00    +0.000 OA
ATOM     37  C   UNL     1      -1.673  -3.456  -1.739  1.00  0.00    +0.000 C 
ATOM     38  C   UNL     1      -0.941  -4.535  -2.531  1.00  0.00    +0.000 C 
ATOM     39  C   UNL     1      -3.186  -3.502  -1.993  1.00  0.00    +0.000 C 
ATOM     40  C   UNL     1      -3.898  -2.493  -1.081  1.00  0.00    +0.000 C 
ATOM     41  C   UNL     1      -3.511  -2.741   0.385  1.00  0.00    +0.000 C 
BRANCH  39  42
ATOM     42  O   UNL     1      -3.472  -3.200  -3.364  1.00  0.00    +0.000 OA
ATOM     43  H   UNL     1      -4.444  -3.170  -3.443  1.00  0.00    +0.000 HD
ENDBRANCH  39  42
BRANCH  40  44
ATOM     44  O   UNL     1      -5.326  -2.657  -1.294  1.00  0.00    +0.000 OA
BRANCH  44  45
ATOM     45  C   UNL     1      -6.109  -1.637  -0.847  1.00  0.00    +0.000 C 
ATOM     46  C   UNL     1      -7.550  -1.936  -1.124  1.00  0.00    +0.000 C 
ATOM     47  O   UNL     1      -5.705  -0.625  -0.296  1.00  0.00    +0.000 OA
ENDBRANCH  44  45
ENDBRANCH  40  44
BRANCH  41  48
ATOM     48  O   UNL     1      -4.036  -4.037   0.775  1.00  0.00    +0.000 OA
BRANCH  48  49
ATOM     49  C   UNL     1      -4.067  -4.281   2.112  1.00  0.00    +0.000 C 
ATOM     50  C   UNL     1      -4.630  -5.643   2.375  1.00  0.00    +0.000 C 
ATOM     51  O   UNL     1      -3.689  -3.506   2.978  1.00  0.00    +0.000 OA
ENDBRANCH  48  49
ENDBRANCH  41  48
ENDBRANCH  34  35
ENDBRANCH   1  34
TORSDOF 15
