REMARK  Name = SANCDB_01031_minRM1.pdb
AUTHORGENERATED BY OPEN BABEL 2.3.2
REMARK  9 active torsions:
REMARK  status: ('A' for Active; 'I' for Inactive)
REMARK    1  A    between atoms: C_1  and  O_2
REMARK    2  A    between atoms: O_2  and  C_3
REMARK    3  A    between atoms: C_4  and  C_11
REMARK    4  A    between atoms: C_5  and  O_9
REMARK    5  A    between atoms: O_9  and  C_10
REMARK    6  A    between atoms: C_20  and  O_24
REMARK    7  A    between atoms: C_21  and  O_22
REMARK    8  A    between atoms: O_22  and  C_23
REMARK    9  A    between atoms: O_24  and  C_25
REMARK                            x       y       z     vdW  Elec       q    Type
REMARK                         _______ _______ _______ _____ _____    ______ ____
ROOT
ATOM      1  C   UNL     1      -1.098  -0.439  -0.069  1.00  0.00    +0.000 A 
ATOM      2  C   UNL     1      -0.610  -1.681   0.016  1.00  0.00    +0.000 A 
ATOM      3  C   UNL     1       0.848  -1.883   0.015  1.00  0.00    +0.000 A 
ATOM      4  O   UNL     1       1.293  -3.014   0.169  1.00  0.00    +0.000 OA
ATOM      5  C   UNL     1       1.685  -0.672  -0.152  1.00  0.00    +0.000 A 
ATOM      6  C   UNL     1       1.034   0.560  -0.229  1.00  0.00    +0.000 A 
ATOM      7  O   UNL     1      -0.330   0.703  -0.174  1.00  0.00    +0.000 OA
ATOM      8  C   UNL     1       1.764   1.741  -0.373  1.00  0.00    +0.000 A 
ATOM      9  C   UNL     1       3.157   1.700  -0.456  1.00  0.00    +0.000 A 
ATOM     10  C   UNL     1       3.829   0.476  -0.398  1.00  0.00    +0.000 A 
ATOM     11  C   UNL     1       3.087  -0.711  -0.226  1.00  0.00    +0.000 A 
ENDROOT
BRANCH   1  13
ATOM     12  C   UNL     1      -3.313  -0.332   1.114  1.00  0.00    +0.000 A 
ATOM     13  C   UNL     1      -2.551  -0.193  -0.067  1.00  0.00    +0.000 A 
ATOM     14  C   UNL     1      -3.197   0.192  -1.256  1.00  0.00    +0.000 A 
ATOM     15  C   UNL     1      -4.577   0.399  -1.287  1.00  0.00    +0.000 A 
ATOM     16  C   UNL     1      -5.322   0.261  -0.119  1.00  0.00    +0.000 A 
ATOM     17  C   UNL     1      -4.694  -0.098   1.076  1.00  0.00    +0.000 A 
BRANCH  12  19
ATOM     18  C   UNL     1      -3.367  -0.896   3.438  1.00  0.00    +0.000 C 
ATOM     19  O   UNL     1      -2.622  -0.687   2.246  1.00  0.00    +0.000 OA
ENDBRANCH  12  19
BRANCH  14  20
ATOM     20  O   UNL     1      -2.474   0.282  -2.421  1.00  0.00    +0.000 OA
ATOM     21  C   UNL     1      -2.391   1.634  -2.870  1.00  0.00    +0.000 C 
ENDBRANCH  14  20
ENDBRANCH   1  13
BRANCH  11  22
ATOM     22  O   UNL     1       3.757  -1.911  -0.230  1.00  0.00    +0.000 OA
ATOM     23  C   UNL     1       4.200  -2.240   1.086  1.00  0.00    +0.000 C 
ENDBRANCH  11  22
BRANCH  10  24
ATOM     24  O   UNL     1       5.190   0.334  -0.486  1.00  0.00    +0.000 OA
ATOM     25  C   UNL     1       5.950   1.482  -0.836  1.00  0.00    +0.000 C 
ENDBRANCH  10  24
TORSDOF 5
