REMARK  Name = SANCDB_00810_minRM1.pdb
AUTHORGENERATED BY OPEN BABEL 2.3.2
REMARK  17 active torsions:
REMARK  status: ('A' for Active; 'I' for Inactive)
REMARK    1  A    between atoms: C_1  and  O_2
REMARK    2  A    between atoms: O_2  and  C_3
REMARK    3  A    between atoms: C_3  and  C_5
REMARK    4  A    between atoms: C_5  and  C_6
REMARK    5  A    between atoms: C_7  and  C_8
REMARK    6  A    between atoms: C_7  and  C_16
REMARK    7  A    between atoms: C_13  and  C_14
REMARK    8  A    between atoms: C_13  and  C_15
REMARK    9  A    between atoms: C_17  and  O_18
REMARK   10  A    between atoms: O_18  and  C_19
REMARK   11  A    between atoms: C_19  and  C_21
REMARK   12  A    between atoms: C_22  and  O_23
REMARK   13  A    between atoms: O_23  and  C_24
REMARK   14  A    between atoms: C_24  and  C_26
REMARK   15  A    between atoms: C_27  and  C_41
REMARK   16  A    between atoms: C_31  and  C_32
REMARK   17  A    between atoms: C_37  and  O_38
REMARK                            x       y       z     vdW  Elec       q    Type
REMARK                         _______ _______ _______ _____ _____    ______ ____
ROOT
ATOM      1  C   UNL     1       0.580   0.367  -0.192  1.00  0.00    +0.000 C 
ATOM      2  C   UNL     1      -0.648   0.335  -1.190  1.00  0.00    +0.000 C 
ATOM      3  C   UNL     1      -2.009  -0.076  -0.525  1.00  0.00    +0.000 C 
ATOM      4  C   UNL     1      -2.053   0.215   0.989  1.00  0.00    +0.000 C 
ATOM      5  C   UNL     1      -0.874  -0.470   1.660  1.00  0.00    +0.000 C 
ATOM      6  C   UNL     1      -1.195  -0.892   2.893  1.00  0.00    +0.000 C 
ATOM      7  C   UNL     1      -2.642  -0.652   3.199  1.00  0.00    +0.000 C 
ATOM      8  C   UNL     1      -3.254  -0.409   1.794  1.00  0.00    +0.000 C 
ATOM      9  C   UNL     1       0.369  -0.674   0.922  1.00  0.00    +0.000 C 
ATOM     10  C   UNL     1       1.162  -1.717   1.213  1.00  0.00    +0.000 C 
ATOM     11  C   UNL     1      -2.075   1.746   1.262  1.00  0.00    +0.000 C 
ENDROOT
BRANCH   1  13
ATOM     12  C   UNL     1       3.152   0.914   0.330  1.00  0.00    +0.000 C 
ATOM     13  C   UNL     1       2.044   0.619  -0.821  1.00  0.00    +0.000 C 
ATOM     14  C   UNL     1       2.458  -0.554  -1.751  1.00  0.00    +0.000 C 
ATOM     15  C   UNL     1       1.991   1.833  -1.756  1.00  0.00    +0.000 C 
ATOM     16  C   UNL     1       2.576   3.023  -1.567  1.00  0.00    +0.000 C 
ATOM     17  C   UNL     1       3.310   3.354  -0.325  1.00  0.00    +0.000 C 
ATOM     18  O   UNL     1       3.954   4.399  -0.282  1.00  0.00    +0.000 OA
ATOM     19  C   UNL     1       3.154   2.414   0.867  1.00  0.00    +0.000 C 
ATOM     20  C   UNL     1       4.298   2.668   1.882  1.00  0.00    +0.000 C 
ATOM     21  C   UNL     1       1.857   2.823   1.597  1.00  0.00    +0.000 C 
BRANCH  12  22
ATOM     22  C   UNL     1       4.597   0.494  -0.100  1.00  0.00    +0.000 C 
BRANCH  22  23
ATOM     23  C   UNL     1       4.901  -0.973   0.118  1.00  0.00    +0.000 C 
ATOM     24  O   UNL     1       5.204  -1.754  -0.772  1.00  0.00    +0.000 OA
BRANCH  23  26
ATOM     25  C   UNL     1       5.141  -2.646   1.738  1.00  0.00    +0.000 C 
ATOM     26  O   UNL     1       4.824  -1.285   1.441  1.00  0.00    +0.000 OA
ENDBRANCH  23  26
ENDBRANCH  22  23
ENDBRANCH  12  22
ENDBRANCH   1  13
BRANCH   8  27
ATOM     27  C   UNL     1      -3.898  -1.675   1.273  1.00  0.00    +0.000 C 
ATOM     28  C   UNL     1      -3.335  -2.840   0.949  1.00  0.00    +0.000 C 
ATOM     29  C   UNL     1      -4.415  -3.727   0.527  1.00  0.00    +0.000 C 
ATOM     30  O   UNL     1      -4.268  -4.888   0.192  1.00  0.00    +0.000 OA
ATOM     31  O   UNL     1      -5.601  -3.069   0.604  1.00  0.00    +0.000 OA
ATOM     32  C   UNL     1      -5.366  -1.767   1.106  1.00  0.00    +0.000 C 
BRANCH  32  33
ATOM     33  O   UNL     1      -5.798  -0.798   0.177  1.00  0.00    +0.000 OA
ATOM     34  H   UNL     1      -6.755  -0.950   0.092  1.00  0.00    +0.000 HD
ENDBRANCH  32  33
ENDBRANCH   8  27
BRANCH   2  35
ATOM     35  O   UNL     1      -0.421  -0.609  -2.260  1.00  0.00    +0.000 OA
BRANCH  35  36
ATOM     36  C   UNL     1      -0.845  -0.250  -3.504  1.00  0.00    +0.000 C 
ATOM     37  O   UNL     1      -1.285   0.848  -3.813  1.00  0.00    +0.000 OA
ATOM     38  C   UNL     1      -0.664  -1.391  -4.459  1.00  0.00    +0.000 C 
ENDBRANCH  35  36
ENDBRANCH   2  35
BRANCH   3  39
ATOM     39  O   UNL     1      -3.095   0.633  -1.165  1.00  0.00    +0.000 OA
BRANCH  39  40
ATOM     40  C   UNL     1      -3.793  -0.038  -2.122  1.00  0.00    +0.000 C 
ATOM     41  O   UNL     1      -3.573  -1.182  -2.496  1.00  0.00    +0.000 OA
ATOM     42  C   UNL     1      -4.858   0.847  -2.692  1.00  0.00    +0.000 C 
ENDBRANCH  39  40
ENDBRANCH   3  39
TORSDOF 10
