REMARK  Name = SANCDB_00752_minRM1.pdb
AUTHORGENERATED BY OPEN BABEL 2.3.2
REMARK  10 active torsions:
REMARK  status: ('A' for Active; 'I' for Inactive)
REMARK    1  A    between atoms: C_1  and  O_2
REMARK    2  A    between atoms: O_2  and  C_3
REMARK    3  A    between atoms: C_7  and  O_8
REMARK    4  A    between atoms: O_8  and  C_9
REMARK    5  A    between atoms: C_10  and  O_11
REMARK    6  A    between atoms: O_11  and  C_12
REMARK    7  A    between atoms: N_21  and  C_22
REMARK    8  A    between atoms: C_22  and  O_23
REMARK    9  A    between atoms: O_23  and  C_24
REMARK   10  A    between atoms: C_24  and  C_25
REMARK                            x       y       z     vdW  Elec       q    Type
REMARK                         _______ _______ _______ _____ _____    ______ ____
ROOT
ATOM      1  C   UNL     1      -1.111  -0.980   1.944  1.00  0.00    +0.000 A 
ATOM      2  C   UNL     1       0.006  -0.702   1.143  1.00  0.00    +0.000 A 
ATOM      3  C   UNL     1      -0.108  -0.077  -0.118  1.00  0.00    +0.000 A 
ATOM      4  C   UNL     1      -1.400   0.290  -0.554  1.00  0.00    +0.000 A 
ATOM      5  C   UNL     1      -2.530   0.000   0.232  1.00  0.00    +0.000 A 
ATOM      6  C   UNL     1      -2.387  -0.647   1.470  1.00  0.00    +0.000 A 
ATOM      7  C   UNL     1      -1.522   0.975  -1.871  1.00  0.00    +0.000 A 
ATOM      8  O   UNL     1      -2.592   1.101  -2.455  1.00  0.00    +0.000 OA
ATOM      9  C   UNL     1      -0.298   1.504  -2.510  1.00  0.00    +0.000 A 
ATOM     10  C   UNL     1      -0.422   2.369  -3.609  1.00  0.00    +0.000 A 
ATOM     11  C   UNL     1       0.716   2.881  -4.222  1.00  0.00    +0.000 A 
ATOM     12  C   UNL     1       1.970   2.532  -3.735  1.00  0.00    +0.000 A 
ATOM     13  C   UNL     1       2.087   1.662  -2.643  1.00  0.00    +0.000 A 
ATOM     14  C   UNL     1       0.956   1.113  -2.014  1.00  0.00    +0.000 A 
ATOM     15  N   UNL     1       1.021   0.226  -0.919  1.00  0.00    +0.000 N 
ENDROOT
BRANCH   1  17
ATOM     16  C   UNL     1       0.239  -1.662   3.800  1.00  0.00    +0.000 C 
ATOM     17  O   UNL     1      -1.039  -1.550   3.188  1.00  0.00    +0.000 OA
ENDBRANCH   1  17
BRANCH   5  18
ATOM     18  O   UNL     1      -3.779   0.432  -0.143  1.00  0.00    +0.000 OA
ATOM     19  C   UNL     1      -4.496  -0.607  -0.810  1.00  0.00    +0.000 C 
ENDBRANCH   5  18
BRANCH   6  20
ATOM     20  O   UNL     1      -3.530  -0.835   2.214  1.00  0.00    +0.000 OA
ATOM     21  C   UNL     1      -3.737  -2.192   2.599  1.00  0.00    +0.000 C 
ENDBRANCH   6  20
BRANCH  15  22
ATOM     22  C   UNL     1       2.305  -0.430  -0.627  1.00  0.00    +0.000 C 
BRANCH  22  23
ATOM     23  O   UNL     1       3.050   0.363   0.297  1.00  0.00    +0.000 OA
BRANCH  23  24
ATOM     24  C   UNL     1       4.234  -0.195   0.648  1.00  0.00    +0.000 C 
ATOM     25  C   UNL     1       4.964   0.698   1.603  1.00  0.00    +0.000 C 
ATOM     26  O   UNL     1       4.650  -1.274   0.251  1.00  0.00    +0.000 OA
ENDBRANCH  23  24
ENDBRANCH  22  23
ENDBRANCH  15  22
TORSDOF 6
