REMARK  Name = SANCDB_00864_minRM1.pdb
AUTHORGENERATED BY OPEN BABEL 2.3.2
REMARK  8 active torsions:
REMARK  status: ('A' for Active; 'I' for Inactive)
REMARK    1  A    between atoms: C_1  and  C_2
REMARK    2  A    between atoms: C_3  and  C_4
REMARK    3  A    between atoms: C_6  and  O_14
REMARK    4  A    between atoms: C_7  and  O_12
REMARK    5  A    between atoms: C_8  and  O_10
REMARK    6  A    between atoms: O_10  and  C_11
REMARK    7  A    between atoms: O_12  and  C_13
REMARK    8  A    between atoms: O_14  and  C_15
REMARK                            x       y       z     vdW  Elec       q    Type
REMARK                         _______ _______ _______ _____ _____    ______ ____
ROOT
ATOM      1  C   UNL     1       0.978   0.238   0.116  1.00  0.00    +0.000 A 
ATOM      2  C   UNL     1       0.372  -1.022   0.240  1.00  0.00    +0.000 A 
ATOM      3  C   UNL     1      -1.000  -1.177   0.025  1.00  0.00    +0.000 A 
ATOM      4  C   UNL     1      -1.769  -0.043  -0.288  1.00  0.00    +0.000 A 
ATOM      5  C   UNL     1      -1.179   1.224  -0.425  1.00  0.00    +0.000 A 
ATOM      6  C   UNL     1       0.194   1.356  -0.204  1.00  0.00    +0.000 A 
ENDROOT
BRANCH   1   9
ATOM      7  C   UNL     1       4.828  -0.198   0.184  1.00  0.00    +0.000 C 
ATOM      8  C   UNL     1       3.369  -0.406  -0.065  1.00  0.00    +0.000 C 
ATOM      9  C   UNL     1       2.414   0.432   0.368  1.00  0.00    +0.000 C 
ENDBRANCH   1   9
BRANCH   5  10
ATOM     10  O   UNL     1      -2.023   2.256  -0.750  1.00  0.00    +0.000 OA
ATOM     11  C   UNL     1      -1.428   3.497  -1.103  1.00  0.00    +0.000 C 
ENDBRANCH   5  10
BRANCH   4  12
ATOM     12  O   UNL     1      -3.116  -0.191  -0.541  1.00  0.00    +0.000 OA
ATOM     13  C   UNL     1      -3.854  -0.021   0.668  1.00  0.00    +0.000 C 
ENDBRANCH   4  12
BRANCH   3  14
ATOM     14  O   UNL     1      -1.678  -2.365   0.119  1.00  0.00    +0.000 OA
ATOM     15  C   UNL     1      -0.903  -3.549   0.247  1.00  0.00    +0.000 C 
ENDBRANCH   3  14
TORSDOF 4
