REMARK  Name = SANCDB_01105_minRM1.pdb
AUTHORGENERATED BY OPEN BABEL 2.3.2
REMARK  23 active torsions:
REMARK  status: ('A' for Active; 'I' for Inactive)
REMARK    1  A    between atoms: C_1  and  C_2
REMARK    2  A    between atoms: C_2  and  C_30
REMARK    3  A    between atoms: C_3  and  C_4
REMARK    4  A    between atoms: C_4  and  C_5
REMARK    5  A    between atoms: C_5  and  C_6
REMARK    6  A    between atoms: C_6  and  C_29
REMARK    7  A    between atoms: C_7  and  C_8
REMARK    8  A    between atoms: C_8  and  C_9
REMARK    9  A    between atoms: C_9  and  C_10
REMARK   10  A    between atoms: C_10  and  C_28
REMARK   11  A    between atoms: C_11  and  C_12
REMARK   12  A    between atoms: C_12  and  C_13
REMARK   13  A    between atoms: C_13  and  C_14
REMARK   14  A    between atoms: C_15  and  C_16
REMARK   15  A    between atoms: C_15  and  C_27
REMARK   16  A    between atoms: C_16  and  C_17
REMARK   17  A    between atoms: C_17  and  C_18
REMARK   18  A    between atoms: C_19  and  C_20
REMARK   19  A    between atoms: C_19  and  C_26
REMARK   20  A    between atoms: C_20  and  C_21
REMARK   21  A    between atoms: C_21  and  C_22
REMARK   22  A    between atoms: C_23  and  C_24
REMARK   23  A    between atoms: C_23  and  C_25
REMARK                            x       y       z     vdW  Elec       q    Type
REMARK                         _______ _______ _______ _____ _____    ______ ____
ROOT
ATOM      1  C   UNL     1      -0.993  -1.273   1.895  1.00  0.00    +0.000 C 
ENDROOT
BRANCH   1   3
ATOM      2  C   UNL     1      -3.218  -2.443   2.389  1.00  0.00    +0.000 C 
ATOM      3  C   UNL     1      -2.408  -1.366   2.393  1.00  0.00    +0.000 C 
ATOM      4  C   UNL     1      -2.838  -3.799   1.857  1.00  0.00    +0.000 C 
BRANCH   2   5
ATOM      5  C   UNL     1      -4.627  -2.340   2.949  1.00  0.00    +0.000 C 
BRANCH   5   6
ATOM      6  C   UNL     1      -5.716  -2.195   1.875  1.00  0.00    +0.000 C 
BRANCH   6   8
ATOM      7  C   UNL     1      -5.340  -0.558  -0.068  1.00  0.00    +0.000 C 
ATOM      8  C   UNL     1      -5.696  -0.848   1.200  1.00  0.00    +0.000 C 
ATOM      9  C   UNL     1      -4.829  -1.562  -1.065  1.00  0.00    +0.000 C 
BRANCH   7  10
ATOM     10  C   UNL     1      -5.390   0.879  -0.565  1.00  0.00    +0.000 C 
BRANCH  10  11
ATOM     11  C   UNL     1      -6.453   1.149  -1.639  1.00  0.00    +0.000 C 
BRANCH  11  14
ATOM     12  C   UNL     1     -10.136   1.593  -0.355  1.00  0.00    +0.000 C 
ATOM     13  C   UNL     1      -8.752   1.950  -0.830  1.00  0.00    +0.000 C 
ATOM     14  C   UNL     1      -7.861   0.985  -1.129  1.00  0.00    +0.000 C 
ATOM     15  C   UNL     1      -8.489   3.429  -0.911  1.00  0.00    +0.000 C 
ENDBRANCH  11  14
ENDBRANCH  10  11
ENDBRANCH   7  10
ENDBRANCH   6   8
ENDBRANCH   5   6
ENDBRANCH   2   5
ENDBRANCH   1   3
BRANCH   1  16
ATOM     16  C   UNL     1      -0.937  -0.626   0.508  1.00  0.00    +0.000 C 
BRANCH  16  17
ATOM     17  C   UNL     1       0.478  -0.515   0.009  1.00  0.00    +0.000 C 
ATOM     18  C   UNL     1       1.251   0.588  -0.056  1.00  0.00    +0.000 C 
ATOM     19  C   UNL     1       0.830   1.961   0.398  1.00  0.00    +0.000 C 
BRANCH  18  20
ATOM     20  C   UNL     1       2.650   0.505  -0.640  1.00  0.00    +0.000 C 
BRANCH  20  21
ATOM     21  C   UNL     1       3.742   0.513   0.436  1.00  0.00    +0.000 C 
BRANCH  21  22
ATOM     22  C   UNL     1       5.114   0.367  -0.171  1.00  0.00    +0.000 C 
ATOM     23  C   UNL     1       6.016   1.342  -0.405  1.00  0.00    +0.000 C 
ATOM     24  C   UNL     1       5.753   2.803  -0.132  1.00  0.00    +0.000 C 
BRANCH  23  25
ATOM     25  C   UNL     1       7.404   1.096  -0.987  1.00  0.00    +0.000 C 
BRANCH  25  26
ATOM     26  C   UNL     1       7.810  -0.356  -1.279  1.00  0.00    +0.000 C 
BRANCH  26  27
ATOM     27  C   UNL     1       9.192  -0.431  -1.873  1.00  0.00    +0.000 C 
ATOM     28  C   UNL     1      10.332  -0.810  -1.263  1.00  0.00    +0.000 C 
ATOM     29  C   UNL     1      10.451  -1.196   0.186  1.00  0.00    +0.000 C 
ATOM     30  C   UNL     1      11.631  -0.861  -2.025  1.00  0.00    +0.000 C 
ENDBRANCH  26  27
ENDBRANCH  25  26
ENDBRANCH  23  25
ENDBRANCH  21  22
ENDBRANCH  20  21
ENDBRANCH  18  20
ENDBRANCH  16  17
ENDBRANCH   1  16
TORSDOF 15
