REMARK  Name = SANCDB01123.pdb
REMARK  40 active torsions:
REMARK  status: ('A' for Active; 'I' for Inactive)
REMARK    1  A    between atoms: C_1  and  C_2
REMARK    2  A    between atoms: C_2  and  C_3
REMARK    3  A    between atoms: C_3  and  C_4
REMARK    4  A    between atoms: C_4  and  C_5
REMARK    5  A    between atoms: C_5  and  C_6
REMARK    6  A    between atoms: C_6  and  C_7
REMARK    7  A    between atoms: C_7  and  C_8
REMARK    8  A    between atoms: C_8  and  C_9
REMARK    9  A    between atoms: C_9  and  C_10
REMARK   10  A    between atoms: C_10  and  C_11
REMARK   11  A    between atoms: C_11  and  C_12
REMARK   12  A    between atoms: C_12  and  C_13
REMARK   13  A    between atoms: C_13  and  C_14
REMARK   14  A    between atoms: C_14  and  C_15
REMARK   15  A    between atoms: C_15  and  C_16
REMARK   16  A    between atoms: C_16  and  C_17
REMARK   17  A    between atoms: C_17  and  C_18
REMARK   18  A    between atoms: C_18  and  C_19
REMARK   19  A    between atoms: C_19  and  C_20
REMARK   20  A    between atoms: C_20  and  C_21
REMARK   21  A    between atoms: C_21  and  C_22
REMARK   22  A    between atoms: C_22  and  C_23
REMARK   23  A    between atoms: C_23  and  C_24
REMARK   24  A    between atoms: C_24  and  C_25
REMARK   25  A    between atoms: C_25  and  C_26
REMARK   26  A    between atoms: C_26  and  C_27
REMARK   27  A    between atoms: C_27  and  C_28
REMARK   28  A    between atoms: C_28  and  C_29
REMARK   29  A    between atoms: C_29  and  C_30
REMARK   30  A    between atoms: C_30  and  C_31
REMARK   31  A    between atoms: C_31  and  C_32
REMARK   32  A    between atoms: C_32  and  C_33
REMARK   33  A    between atoms: C_33  and  C_34
REMARK   34  A    between atoms: C_34  and  O_35
REMARK   35  A    between atoms: O_35  and  C_36
REMARK   36  A    between atoms: C_36  and  C_38
REMARK   37  A    between atoms: C_39  and  C_40
REMARK   38  A    between atoms: C_43  and  O_44
REMARK   39  A    between atoms: C_45  and  O_46
REMARK   40  A    between atoms: O_46  and  C_47
REMARK                            x       y       z     vdW  Elec       q    Type
REMARK                         _______ _______ _______ _____ _____    ______ ____
ROOT
ATOM      1  C   UNL     1       2.300  -2.803   2.123  1.00  0.00    +0.000 C 
ENDROOT
BRANCH   1   2
ATOM      2  C   UNL     1       3.260  -2.087   3.080  1.00  0.00    +0.000 C 
BRANCH   2   3
ATOM      3  C   UNL     1       4.738  -2.155   2.675  1.00  0.00    +0.000 C 
BRANCH   3   4
ATOM      4  C   UNL     1       5.056  -1.445   1.359  1.00  0.00    +0.000 C 
BRANCH   4   5
ATOM      5  C   UNL     1       6.550  -1.445   1.010  1.00  0.00    +0.000 C 
BRANCH   5   6
ATOM      6  C   UNL     1       7.384  -0.535   1.916  1.00  0.00    +0.000 C 
BRANCH   6   7
ATOM      7  C   UNL     1       8.876  -0.529   1.565  1.00  0.00    +0.000 C 
BRANCH   7   8
ATOM      8  C   UNL     1       9.179   0.102   0.204  1.00  0.00    +0.000 C 
BRANCH   8   9
ATOM      9  C   UNL     1      10.684   0.211  -0.034  1.00  0.00    +0.000 C 
BRANCH   9  10
ATOM     10  C   UNL     1      10.994   0.834  -1.391  1.00  0.00    +0.000 C 
BRANCH  10  11
ATOM     11  O   UNL     1      12.418   0.916  -1.530  1.00  0.00    +0.000 OA
BRANCH  11  12
ATOM     12  C   UNL     1      12.829   1.457  -2.701  1.00  0.00    +0.000 C 
ATOM     13  O   UNL     1      12.108   1.852  -3.605  1.00  0.00    +0.000 OA
BRANCH  12  14
ATOM     14  C   UNL     1      14.302   1.525  -2.792  1.00  0.00    +0.000 C 
ATOM     15  C   UNL     1      15.142   1.109  -1.831  1.00  0.00    +0.000 C 
BRANCH  15  16
ATOM     16  C   UNL     1      16.605   1.199  -1.942  1.00  0.00    +0.000 A 
ATOM     17  C   UNL     1      17.340   1.582  -0.812  1.00  0.00    +0.000 A 
ATOM     18  C   UNL     1      18.732   1.659  -0.866  1.00  0.00    +0.000 A 
ATOM     19  C   UNL     1      19.382   1.339  -2.050  1.00  0.00    +0.000 A 
ATOM     20  C   UNL     1      18.677   0.937  -3.189  1.00  0.00    +0.000 A 
ATOM     21  C   UNL     1      17.284   0.863  -3.127  1.00  0.00    +0.000 A 
BRANCH  20  22
ATOM     22  O   UNL     1      19.457   0.644  -4.278  1.00  0.00    +0.000 OA
ATOM     23  C   UNL     1      18.777   0.236  -5.460  1.00  0.00    +0.000 C 
ENDBRANCH  20  22
BRANCH  19  24
ATOM     24  O   UNL     1      20.748   1.423  -2.079  1.00  0.00    +0.000 OA
ATOM     25  H   UNL     1      20.997   1.150  -2.984  1.00  0.00    +0.000 HD
ENDBRANCH  19  24
ENDBRANCH  15  16
ENDBRANCH  12  14
ENDBRANCH  11  12
ENDBRANCH  10  11
ENDBRANCH   9  10
ENDBRANCH   8   9
ENDBRANCH   7   8
ENDBRANCH   6   7
ENDBRANCH   5   6
ENDBRANCH   4   5
ENDBRANCH   3   4
ENDBRANCH   2   3
ENDBRANCH   1   2
BRANCH   1  26
ATOM     26  C   UNL     1       1.611  -1.891   1.101  1.00  0.00    +0.000 C 
BRANCH  26  27
ATOM     27  C   UNL     1       0.564  -0.965   1.729  1.00  0.00    +0.000 C 
BRANCH  27  28
ATOM     28  C   UNL     1      -0.151  -0.134   0.659  1.00  0.00    +0.000 C 
BRANCH  28  29
ATOM     29  C   UNL     1      -1.122   0.900   1.237  1.00  0.00    +0.000 C 
BRANCH  29  30
ATOM     30  C   UNL     1      -2.253   0.346   2.111  1.00  0.00    +0.000 C 
BRANCH  30  31
ATOM     31  C   UNL     1      -3.176  -0.624   1.371  1.00  0.00    +0.000 C 
BRANCH  31  32
ATOM     32  C   UNL     1      -4.295  -1.192   2.251  1.00  0.00    +0.000 C 
BRANCH  32  33
ATOM     33  C   UNL     1      -5.253  -0.169   2.871  1.00  0.00    +0.000 C 
BRANCH  33  34
ATOM     34  C   UNL     1      -6.005   0.668   1.833  1.00  0.00    +0.000 C 
BRANCH  34  35
ATOM     35  C   UNL     1      -6.971   1.681   2.455  1.00  0.00    +0.000 C 
BRANCH  35  36
ATOM     36  C   UNL     1      -8.091   1.095   3.321  1.00  0.00    +0.000 C 
BRANCH  36  37
ATOM     37  C   UNL     1      -8.970   0.033   2.651  1.00  0.00    +0.000 C 
BRANCH  37  38
ATOM     38  C   UNL     1      -9.739   0.562   1.438  1.00  0.00    +0.000 C 
BRANCH  38  39
ATOM     39  C   UNL     1     -10.595  -0.505   0.744  1.00  0.00    +0.000 C 
BRANCH  39  40
ATOM     40  C   UNL     1     -11.782  -0.979   1.583  1.00  0.00    +0.000 C 
BRANCH  40  41
ATOM     41  C   UNL     1     -12.608  -2.092   0.928  1.00  0.00    +0.000 C 
BRANCH  41  42
ATOM     42  C   UNL     1     -13.332  -1.685  -0.361  1.00  0.00    +0.000 C 
BRANCH  42  43
ATOM     43  C   UNL     1     -12.582  -2.108  -1.629  1.00  0.00    +0.000 C 
BRANCH  43  44
ATOM     44  C   UNL     1     -13.369  -1.843  -2.917  1.00  0.00    +0.000 C 
BRANCH  44  45
ATOM     45  C   UNL     1     -13.743  -0.380  -3.181  1.00  0.00    +0.000 C 
BRANCH  45  46
ATOM     46  C   UNL     1     -12.528   0.544  -3.296  1.00  0.00    +0.000 C 
BRANCH  46  47
ATOM     47  C   UNL     1     -12.887   1.964  -3.745  1.00  0.00    +0.000 C 
BRANCH  47  49
ATOM     48  C   UNL     1     -13.958   4.167  -3.154  1.00  0.00    +0.000 C 
ATOM     49  C   UNL     1     -13.730   2.726  -2.722  1.00  0.00    +0.000 C 
ENDBRANCH  47  49
ENDBRANCH  46  47
ENDBRANCH  45  46
ENDBRANCH  44  45
ENDBRANCH  43  44
ENDBRANCH  42  43
ENDBRANCH  41  42
ENDBRANCH  40  41
ENDBRANCH  39  40
ENDBRANCH  38  39
ENDBRANCH  37  38
ENDBRANCH  36  37
ENDBRANCH  35  36
ENDBRANCH  34  35
ENDBRANCH  33  34
ENDBRANCH  32  33
ENDBRANCH  31  32
ENDBRANCH  30  31
ENDBRANCH  29  30
ENDBRANCH  28  29
ENDBRANCH  27  28
ENDBRANCH  26  27
ENDBRANCH   1  26
TORSDOF 38
