REMARK  Name = /srv/my_project/app/compsite/backup/Dave/CORINA_stuff/newPDBs/SANC00216.pdb
AUTHORGENERATED BY OPEN BABEL 2.3.2
REMARK  7 active torsions:
REMARK  status: ('A' for Active; 'I' for Inactive)
REMARK    1  A    between atoms: C_1  and  C_2
REMARK    2  A    between atoms: C_2  and  C_13
REMARK    3  A    between atoms: C_3  and  C_4
REMARK    4  A    between atoms: C_4  and  C_5
REMARK    5  A    between atoms: C_5  and  C_7
REMARK    6  A    between atoms: C_7  and  C_8
REMARK    7  A    between atoms: C_9  and  C_10
REMARK                            x       y       z     vdW  Elec       q    Type
REMARK                         _______ _______ _______ _____ _____    ______ ____
ROOT
ATOM      1  C   UNL     1      -0.437  -0.430   1.033  1.00  0.00    +0.000 C 
ATOM      2 BR   UNL     1      -0.409  -0.538   3.002  1.00  0.00    +0.000 Br
ENDROOT
BRANCH   1   3
ATOM      3  C   UNL     1      -1.909  -0.441   0.627  1.00  0.00    +0.000 C 
ATOM      4  C   UNL     1      -2.478  -1.830   0.458  1.00  0.00    +0.000 C 
ATOM      5  C   UNL     1      -2.619   0.691   0.411  1.00  0.00    +0.000 C 
BRANCH   5   6
ATOM      6  C   UNL     1      -4.062   0.836   0.024  1.00  0.00    +0.000 C 
ATOM      7 CL   UNL     1      -4.859   1.983   1.128  1.00  0.00    +0.000 Cl
ATOM      8 CL   UNL     1      -4.155   1.437  -1.647  1.00  0.00    +0.000 Cl
ENDBRANCH   5   6
ENDBRANCH   1   3
BRANCH   1   9
ATOM      9  C   UNL     1       0.401   0.778   0.575  1.00  0.00    +0.000 C 
BRANCH   9  12
ATOM     10  C   UNL     1       2.396  -0.203  -1.610  1.00  0.00    +0.000 C 
ATOM     11  C   UNL     1       2.772   0.182  -0.203  1.00  0.00    +0.000 C 
ATOM     12  C   UNL     1       1.889   0.569   0.741  1.00  0.00    +0.000 C 
BRANCH  11  13
ATOM     13  C   UNL     1       4.236   0.051   0.131  1.00  0.00    +0.000 C 
ATOM     14 BR   UNL     1       5.206   1.553  -0.636  1.00  0.00    +0.000 Br
ENDBRANCH  11  13
ENDBRANCH   9  12
ENDBRANCH   1   9
TORSDOF 5
