REMARK  Name = /srv/my_project/app/compsite/backup/Dave/CORINA_stuff/newPDBs/SANC00172.pdb
AUTHORGENERATED BY OPEN BABEL 2.3.2
REMARK  10 active torsions:
REMARK  status: ('A' for Active; 'I' for Inactive)
REMARK    1  A    between atoms: C_5  and  C_7
REMARK    2  A    between atoms: C_9  and  C_10
REMARK    3  A    between atoms: C_17  and  O_19
REMARK    4  A    between atoms: C_23  and  O_25
REMARK    5  A    between atoms: O_25  and  C_26
REMARK    6  A    between atoms: C_26  and  C_27
REMARK    7  A    between atoms: C_31  and  C_32
REMARK    8  A    between atoms: C_32  and  O_33
REMARK    9  A    between atoms: O_33  and  C_34
REMARK   10  A    between atoms: C_34  and  C_35
REMARK                            x       y       z     vdW  Elec       q    Type
REMARK                         _______ _______ _______ _____ _____    ______ ____
ROOT
ATOM      1  C   UNL     1      -1.952  -1.515   0.480  1.00  0.00    +0.000 C 
ATOM      2  C   UNL     1      -2.829  -2.662  -0.012  1.00  0.00    +0.000 C 
ATOM      3  C   UNL     1      -4.173  -2.442   0.703  1.00  0.00    +0.000 C 
ATOM      4  C   UNL     1      -4.059  -1.085   1.452  1.00  0.00    +0.000 C 
ATOM      5  C   UNL     1      -2.946  -0.342   0.655  1.00  0.00    +0.000 C 
ATOM      6  C   UNL     1      -3.479   0.207  -0.694  1.00  0.00    +0.000 C 
ATOM      7  C   UNL     1      -2.203   0.756   1.431  1.00  0.00    +0.000 C 
ATOM      8  C   UNL     1      -0.931   1.202   0.691  1.00  0.00    +0.000 C 
ATOM      9  C   UNL     1       0.037   0.040   0.340  1.00  0.00    +0.000 C 
ATOM     10  C   UNL     1      -0.697  -1.161  -0.333  1.00  0.00    +0.000 C 
ATOM     11  C   UNL     1       0.252  -2.369  -0.478  1.00  0.00    +0.000 C 
ATOM     12  C   UNL     1       1.620  -1.994  -0.944  1.00  0.00    +0.000 C 
ATOM     13  C   UNL     1       2.116  -0.744  -0.965  1.00  0.00    +0.000 C 
ATOM     14  C   UNL     1       3.533  -0.504  -1.465  1.00  0.00    +0.000 C 
ATOM     15  C   UNL     1       4.370   0.342  -0.496  1.00  0.00    +0.000 C 
ATOM     16  C   UNL     1       3.622   1.616  -0.101  1.00  0.00    +0.000 C 
ATOM     17  C   UNL     1       2.236   1.307   0.474  1.00  0.00    +0.000 C 
ATOM     18  C   UNL     1       1.321   0.486  -0.486  1.00  0.00    +0.000 C 
ENDROOT
BRANCH   4  19
ATOM     19  C   UNL     1      -5.416  -0.482   1.710  1.00  0.00    +0.000 C 
ATOM     20  C   UNL     1      -5.782   0.804   1.651  1.00  0.00    +0.000 C 
ENDBRANCH   4  19
BRANCH  11  21
ATOM     21  O   UNL     1       0.420  -3.059   0.756  1.00  0.00    +0.000 OA
ATOM     22  H   UNL     1       1.003  -2.516   1.312  1.00  0.00    +0.000 HD
ENDBRANCH  11  21
BRANCH  15  23
ATOM     23  O   UNL     1       4.649  -0.400   0.711  1.00  0.00    +0.000 OA
BRANCH  23  24
ATOM     24  C   UNL     1       5.670  -1.296   0.638  1.00  0.00    +0.000 C 
ATOM     25  C   UNL     1       5.825  -2.002   1.951  1.00  0.00    +0.000 C 
ATOM     26  O   UNL     1       6.364  -1.507  -0.346  1.00  0.00    +0.000 OA
ENDBRANCH  23  24
ENDBRANCH  15  23
BRANCH  18  27
ATOM     27  C   UNL     1       0.937   1.328  -1.748  1.00  0.00    +0.000 C 
BRANCH  27  28
ATOM     28  O   UNL     1       0.615   2.684  -1.400  1.00  0.00    +0.000 OA
BRANCH  28  29
ATOM     29  C   UNL     1       0.212   3.456  -2.446  1.00  0.00    +0.000 C 
ATOM     30  C   UNL     1      -0.115   4.836  -1.966  1.00  0.00    +0.000 C 
ATOM     31  O   UNL     1       0.126   3.087  -3.608  1.00  0.00    +0.000 OA
ENDBRANCH  28  29
ENDBRANCH  27  28
ENDBRANCH  18  27
TORSDOF 7
