REMARK  Name = /srv/my_project/app/compsite/backup/Dave/CORINA_stuff/newPDBs/SANC00375.pdb
AUTHORGENERATED BY OPEN BABEL 2.3.2
REMARK  5 active torsions:
REMARK  status: ('A' for Active; 'I' for Inactive)
REMARK    1  A    between atoms: C_6  and  O_7
REMARK    2  A    between atoms: O_7  and  C_8
REMARK    3  A    between atoms: C_9  and  O_10
REMARK    4  A    between atoms: O_10  and  C_11
REMARK    5  A    between atoms: N_24  and  C_25
REMARK                            x       y       z     vdW  Elec       q    Type
REMARK                         _______ _______ _______ _____ _____    ______ ____
ROOT
ATOM      1  C   UNL     1      -1.528  -1.136   0.836  1.00  0.00    +0.000 C 
ATOM      2  C   UNL     1      -0.385  -1.945   0.181  1.00  0.00    +0.000 C 
ATOM      3  C   UNL     1       0.904  -1.156   0.170  1.00  0.00    +0.000 A 
ATOM      4  C   UNL     1       2.129  -1.822   0.344  1.00  0.00    +0.000 A 
ATOM      5  C   UNL     1       3.330  -1.112   0.336  1.00  0.00    +0.000 A 
ATOM      6  C   UNL     1       3.303   0.280   0.148  1.00  0.00    +0.000 A 
ATOM      7  C   UNL     1       2.074   0.934  -0.036  1.00  0.00    +0.000 A 
ATOM      8  C   UNL     1       0.854   0.235  -0.057  1.00  0.00    +0.000 A 
ATOM      9  C   UNL     1      -0.464   0.893  -0.263  1.00  0.00    +0.000 A 
ATOM     10  C   UNL     1      -0.645   2.131  -0.878  1.00  0.00    +0.000 A 
ATOM     11  O   UNL     1       0.321   2.914  -1.445  1.00  0.00    +0.000 OA
ATOM     12  C   UNL     1      -0.447   4.029  -1.930  1.00  0.00    +0.000 C 
ATOM     13  O   UNL     1      -1.850   3.919  -1.644  1.00  0.00    +0.000 OA
ATOM     14  C   UNL     1      -1.889   2.717  -1.007  1.00  0.00    +0.000 A 
ATOM     15  C   UNL     1      -3.037   2.125  -0.533  1.00  0.00    +0.000 A 
ATOM     16  C   UNL     1      -2.922   0.874   0.079  1.00  0.00    +0.000 A 
ATOM     17  C   UNL     1      -4.167   0.186   0.583  1.00  0.00    +0.000 C 
ATOM     18  C   UNL     1      -3.854  -1.024   1.470  1.00  0.00    +0.000 C 
ATOM     19  N   UNL     1      -2.802  -1.898   0.929  1.00  0.00    +0.000 NA
ATOM     20  C   UNL     1      -3.217  -2.538  -0.318  1.00  0.00    +0.000 C 
ATOM     21  C   UNL     1      -1.652   0.241   0.179  1.00  0.00    +0.000 A 
ENDROOT
BRANCH   5  22
ATOM     22  O   UNL     1       4.570  -1.677   0.504  1.00  0.00    +0.000 OA
ATOM     23  C   UNL     1       4.633  -3.082   0.703  1.00  0.00    +0.000 C 
ENDBRANCH   5  22
BRANCH   6  24
ATOM     24  O   UNL     1       4.522   0.914   0.171  1.00  0.00    +0.000 OA
ATOM     25  C   UNL     1       4.550   2.300  -0.140  1.00  0.00    +0.000 C 
ENDBRANCH   6  24
TORSDOF 2
