REMARK  Name = /srv/my_project/app/compsite/backup/Dave/CORINA_stuff/newPDBs/SANC00279.pdb
AUTHORGENERATED BY OPEN BABEL 2.3.2
REMARK  11 active torsions:
REMARK  status: ('A' for Active; 'I' for Inactive)
REMARK    1  A    between atoms: C_11  and  C_12
REMARK    2  A    between atoms: C_13  and  C_15
REMARK    3  A    between atoms: C_23  and  O_24
REMARK    4  A    between atoms: C_25  and  C_26
REMARK    5  A    between atoms: C_29  and  O_31
REMARK    6  A    between atoms: O_31  and  C_32
REMARK    7  A    between atoms: C_35  and  C_37
REMARK    8  A    between atoms: C_37  and  O_38
REMARK    9  A    between atoms: C_39  and  O_41
REMARK   10  A    between atoms: C_42  and  O_44
REMARK   11  A    between atoms: C_45  and  O_47
REMARK                            x       y       z     vdW  Elec       q    Type
REMARK                         _______ _______ _______ _____ _____    ______ ____
ROOT
ATOM      1  C   UNL     1       0.647   0.627   0.772  1.00  0.00    +0.000 C 
ATOM      2  C   UNL     1       0.447   1.034  -0.695  1.00  0.00    +0.000 C 
ATOM      3  C   UNL     1      -1.006   1.460  -0.957  1.00  0.00    +0.000 C 
ATOM      4  C   UNL     1      -2.022   0.772  -0.014  1.00  0.00    +0.000 C 
ATOM      5  C   UNL     1      -1.538  -0.666   0.275  1.00  0.00    +0.000 C 
ATOM      6  C   UNL     1      -2.654  -1.592   0.788  1.00  0.00    +0.000 C 
ATOM      7  C   UNL     1      -3.810  -0.840   1.435  1.00  0.00    +0.000 C 
ATOM      8  C   UNL     1      -4.483   0.272   0.560  1.00  0.00    +0.000 C 
ATOM      9  C   UNL     1      -4.994   1.333   1.563  1.00  0.00    +0.000 C 
ATOM     10  C   UNL     1      -5.651  -0.326  -0.296  1.00  0.00    +0.000 C 
ATOM     11  C   UNL     1      -4.972  -0.831  -1.572  1.00  0.00    +0.000 C 
ATOM     12  C   UNL     1      -3.764   0.070  -1.814  1.00  0.00    +0.000 C 
ATOM     13  C   UNL     1      -3.489   0.844  -0.505  1.00  0.00    +0.000 C 
ATOM     14  C   UNL     1      -0.202  -0.649   1.127  1.00  0.00    +0.000 C 
ATOM     15  C   UNL     1      -0.488  -0.601   2.648  1.00  0.00    +0.000 C 
ATOM     16  C   UNL     1       0.575  -1.958   0.798  1.00  0.00    +0.000 C 
ATOM     17  C   UNL     1       2.023  -1.968   1.266  1.00  0.00    +0.000 C 
ATOM     18  C   UNL     1       2.793  -0.784   0.690  1.00  0.00    +0.000 C 
ATOM     19  C   UNL     1       2.136   0.518   1.140  1.00  0.00    +0.000 C 
ENDROOT
BRANCH  10  20
ATOM     20  C   UNL     1      -6.834   0.553  -0.622  1.00  0.00    +0.000 C 
ATOM     21  C   UNL     1      -8.084   0.334  -0.208  1.00  0.00    +0.000 C 
ATOM     22  C   UNL     1      -8.928   1.369  -0.798  1.00  0.00    +0.000 C 
ATOM     23  O   UNL     1     -10.128   1.468  -0.627  1.00  0.00    +0.000 OA
ATOM     24  O   UNL     1      -8.161   2.178  -1.573  1.00  0.00    +0.000 OA
ATOM     25  C   UNL     1      -6.797   1.754  -1.492  1.00  0.00    +0.000 C 
ENDBRANCH  10  20
BRANCH  13  26
ATOM     26  O   UNL     1      -3.816   2.216  -0.756  1.00  0.00    +0.000 OA
ATOM     27  H   UNL     1      -3.232   2.555  -1.455  1.00  0.00    +0.000 HD
ENDBRANCH  13  26
BRANCH  18  28
ATOM     28  O   UNL     1       4.127  -0.862   1.195  1.00  0.00    +0.000 OA
BRANCH  28  29
ATOM     29  C   UNL     1       5.092  -0.220   0.353  1.00  0.00    +0.000 C 
ATOM     30  O   UNL     1       5.311  -1.025  -0.809  1.00  0.00    +0.000 OA
ATOM     31  C   UNL     1       6.071  -0.321  -1.808  1.00  0.00    +0.000 C 
ATOM     32  C   UNL     1       7.259   0.461  -1.196  1.00  0.00    +0.000 C 
ATOM     33  C   UNL     1       7.629  -0.086   0.196  1.00  0.00    +0.000 C 
ATOM     34  C   UNL     1       6.415  -0.114   1.147  1.00  0.00    +0.000 C 
BRANCH  32  35
ATOM     35  O   UNL     1       6.862   1.838  -1.081  1.00  0.00    +0.000 OA
ATOM     36  H   UNL     1       7.595   2.324  -0.661  1.00  0.00    +0.000 HD
ENDBRANCH  32  35
BRANCH  33  37
ATOM     37  O   UNL     1       8.205  -1.393   0.080  1.00  0.00    +0.000 OA
ATOM     38  H   UNL     1       7.479  -2.029  -0.072  1.00  0.00    +0.000 HD
ENDBRANCH  33  37
BRANCH  34  39
ATOM     39  O   UNL     1       6.404   1.061   1.974  1.00  0.00    +0.000 OA
ATOM     40  H   UNL     1       7.025   0.895   2.705  1.00  0.00    +0.000 HD
ENDBRANCH  34  39
BRANCH  31  41
ATOM     41  C   UNL     1       6.530  -1.351  -2.848  1.00  0.00    +0.000 C 
BRANCH  41  42
ATOM     42  O   UNL     1       7.147  -0.733  -3.970  1.00  0.00    +0.000 OA
ATOM     43  H   UNL     1       6.468  -0.210  -4.430  1.00  0.00    +0.000 HD
ENDBRANCH  41  42
ENDBRANCH  31  41
ENDBRANCH  28  29
ENDBRANCH  18  28
TORSDOF 9
