REMARK  Name = SANC00270.pdb
AUTHORGENERATED BY OPEN BABEL 2.3.2
REMARK  6 active torsions:
REMARK  status: ('A' for Active; 'I' for Inactive)
REMARK    1  A    between atoms: C_1  and  C_2
REMARK    2  A    between atoms: C_2  and  C_4
REMARK    3  A    between atoms: C_2  and  C_7
REMARK    4  A    between atoms: C_7  and  C_10
REMARK    5  A    between atoms: C_11  and  C_12
REMARK    6  A    between atoms: C_12  and  C_15
REMARK                            x       y       z     vdW  Elec       q    Type
REMARK                         _______ _______ _______ _____ _____    ______ ____
ROOT
ATOM      1  C   UNL     1      -0.237  -0.318   1.795  1.00  0.00    +0.000 C 
ATOM      2 CL   UNL     1       0.256  -1.707   2.835  1.00  0.00    +0.000 Cl
ENDROOT
BRANCH   1   4
ATOM      3  C   UNL     1      -2.383  -1.558   1.020  1.00  0.00    +0.000 C 
ATOM      4  C   UNL     1      -1.786  -0.248   1.555  1.00  0.00    +0.000 C 
ATOM      5 CL   UNL     1      -2.608   0.029   3.177  1.00  0.00    +0.000 Cl
BRANCH   4   6
ATOM      6  C   UNL     1      -2.134   1.007   0.749  1.00  0.00    +0.000 C 
ATOM      7  C   UNL     1      -2.375   1.201  -0.555  1.00  0.00    +0.000 C 
ATOM      8 BR   UNL     1      -2.316  -0.003  -1.955  1.00  0.00    +0.000 Br
ENDBRANCH   4   6
ENDBRANCH   1   4
BRANCH   1   9
ATOM      9  C   UNL     1       0.590  -0.430   0.525  1.00  0.00    +0.000 C 
ATOM     10  C   UNL     1       1.460   0.510   0.119  1.00  0.00    +0.000 C 
BRANCH  10  11
ATOM     11  C   UNL     1       2.285   0.513  -1.098  1.00  0.00    +0.000 C 
ATOM     12  C   UNL     1       2.859   1.688  -1.425  1.00  0.00    +0.000 C 
ATOM     13 CL   UNL     1       3.830   2.017  -2.797  1.00  0.00    +0.000 Cl
BRANCH  11  14
ATOM     14  C   UNL     1       2.443  -0.773  -1.895  1.00  0.00    +0.000 C 
ATOM     15 CL   UNL     1       4.146  -1.268  -2.071  1.00  0.00    +0.000 Cl
ATOM     16 CL   UNL     1       1.629  -0.665  -3.473  1.00  0.00    +0.000 Cl
ENDBRANCH  11  14
ENDBRANCH  10  11
ENDBRANCH   1   9
TORSDOF 5
