REMARK  Name = /srv/my_project/app/compsite/backup/Dave/CORINA_stuff/newPDBs/SANC00600.pdb
AUTHORGENERATED BY OPEN BABEL 2.3.2
REMARK  14 active torsions:
REMARK  status: ('A' for Active; 'I' for Inactive)
REMARK    1  A    between atoms: C_9  and  C_10
REMARK    2  A    between atoms: C_11  and  C_12
REMARK    3  A    between atoms: C_14  and  O_16
REMARK    4  A    between atoms: O_16  and  C_17
REMARK    5  A    between atoms: C_17  and  C_18
REMARK    6  A    between atoms: C_20  and  C_22
REMARK    7  A    between atoms: C_22  and  C_24
REMARK    8  A    between atoms: C_22  and  N_25
REMARK    9  A    between atoms: N_25  and  C_26
REMARK   10  A    between atoms: N_25  and  C_27
REMARK   11  A    between atoms: C_29  and  O_30
REMARK   12  A    between atoms: C_33  and  N_35
REMARK   13  A    between atoms: C_36  and  C_38
REMARK   14  A    between atoms: C_44  and  C_45
REMARK                            x       y       z     vdW  Elec       q    Type
REMARK                         _______ _______ _______ _____ _____    ______ ____
ROOT
ATOM      1  C   UNL     1       1.260  -1.224   0.169  1.00  0.00    +0.000 C 
ATOM      2  C   UNL     1       0.015  -1.804  -0.499  1.00  0.00    +0.000 C 
ATOM      3  C   UNL     1      -1.048  -0.861  -1.097  1.00  0.00    +0.000 C 
ATOM      4  C   UNL     1      -0.449   0.243  -1.968  1.00  0.00    +0.000 C 
ATOM      5  C   UNL     1      -1.006   1.471  -2.077  1.00  0.00    +0.000 C 
ATOM      6  C   UNL     1      -2.299   1.891  -1.407  1.00  0.00    +0.000 C 
ATOM      7  C   UNL     1      -3.095   0.664  -0.923  1.00  0.00    +0.000 C 
ATOM      8  C   UNL     1      -3.719  -0.019  -2.181  1.00  0.00    +0.000 C 
ATOM      9  C   UNL     1      -2.108  -0.272  -0.112  1.00  0.00    +0.000 C 
ATOM     10  C   UNL     1      -1.388   0.443   1.074  1.00  0.00    +0.000 C 
ATOM     11  C   UNL     1      -3.095  -1.277   0.509  1.00  0.00    +0.000 C 
ATOM     12  C   UNL     1      -4.392  -0.464   0.788  1.00  0.00    +0.000 C 
ATOM     13  C   UNL     1      -4.196   0.937   0.141  1.00  0.00    +0.000 C 
ATOM     14  C   UNL     1       0.788  -0.140  -2.749  1.00  0.00    +0.000 C 
ATOM     15  C   UNL     1       2.112   0.086  -1.984  1.00  0.00    +0.000 C 
ATOM     16  C   UNL     1       3.247  -0.689  -2.612  1.00  0.00    +0.000 C 
ATOM     17  C   UNL     1       4.463  -0.686  -2.044  1.00  0.00    +0.000 C 
ATOM     18  C   UNL     1       4.666   0.022  -0.729  1.00  0.00    +0.000 C 
ATOM     19  C   UNL     1       3.466  -0.245   0.233  1.00  0.00    +0.000 C 
ATOM     20  C   UNL     1       3.571   0.674   1.467  1.00  0.00    +0.000 C 
ATOM     21  C   UNL     1       3.450  -1.717   0.699  1.00  0.00    +0.000 C 
ATOM     22  O   UNL     1       2.200  -2.296   0.322  1.00  0.00    +0.000 OA
ATOM     23  C   UNL     1       2.055  -0.063  -0.438  1.00  0.00    +0.000 C 
ENDROOT
BRANCH  18  24
ATOM     24  N   UNL     1       5.939  -0.438  -0.193  1.00  0.00    +0.000 N 
ATOM     25  C   UNL     1       6.826   0.411   0.434  1.00  0.00    +0.000 C 
ATOM     26  O   UNL     1       6.639   1.613   0.573  1.00  0.00    +0.000 OA
ATOM     27  H   UNL     1       6.212  -1.394  -0.368  1.00  0.00    +0.000 HD
BRANCH  25  28
ATOM     28  C   UNL     1       8.086  -0.207   0.932  1.00  0.00    +0.000 A 
ATOM     29  C   UNL     1       9.239   0.585   0.985  1.00  0.00    +0.000 A 
ATOM     30  C   UNL     1      10.441   0.047   1.446  1.00  0.00    +0.000 A 
ATOM     31  C   UNL     1      10.493  -1.282   1.867  1.00  0.00    +0.000 A 
ATOM     32  C   UNL     1       9.344  -2.072   1.834  1.00  0.00    +0.000 A 
ATOM     33  C   UNL     1       8.138  -1.537   1.372  1.00  0.00    +0.000 A 
ENDBRANCH  25  28
ENDBRANCH  18  24
BRANCH  13  34
ATOM     34  C   UNL     1      -5.486   1.716  -0.277  1.00  0.00    +0.000 C 
ATOM     35  C   UNL     1      -6.156   2.353   0.957  1.00  0.00    +0.000 C 
BRANCH  34  36
ATOM     36  N   UNL     1      -6.420   0.967  -1.147  1.00  0.00    +0.000 NA
ATOM     37  C   UNL     1      -7.537   0.309  -0.462  1.00  0.00    +0.000 C 
ATOM     38  C   UNL     1      -6.963   1.826  -2.208  1.00  0.00    +0.000 C 
ENDBRANCH  34  36
ENDBRANCH  13  34
BRANCH  15  39
ATOM     39  O   UNL     1       2.462   1.477  -2.202  1.00  0.00    +0.000 OA
ATOM     40  H   UNL     1       2.734   1.574  -3.130  1.00  0.00    +0.000 HD
ENDBRANCH  15  39
BRANCH  12  41
ATOM     41  O   UNL     1      -4.595  -0.292   2.200  1.00  0.00    +0.000 OA
BRANCH  41  42
ATOM     42  C   UNL     1      -5.143  -1.353   2.852  1.00  0.00    +0.000 C 
ATOM     43  C   UNL     1      -5.299  -1.028   4.306  1.00  0.00    +0.000 C 
ATOM     44  O   UNL     1      -5.464  -2.417   2.345  1.00  0.00    +0.000 OA
ENDBRANCH  41  42
ENDBRANCH  12  41
TORSDOF 7
