REMARK  Name = /srv/my_project/app/compsite/backup/Dave/CORINA_stuff/newPDBs/SANC00606.pdb
AUTHORGENERATED BY OPEN BABEL 2.3.2
REMARK  8 active torsions:
REMARK  status: ('A' for Active; 'I' for Inactive)
REMARK    1  A    between atoms: N_1  and  C_2
REMARK    2  A    between atoms: C_2  and  C_3
REMARK    3  A    between atoms: C_3  and  C_4
REMARK    4  A    between atoms: C_4  and  C_5
REMARK    5  A    between atoms: C_5  and  N_6
REMARK    6  A    between atoms: C_7  and  C_9
REMARK    7  A    between atoms: C_10  and  C_11
REMARK    8  A    between atoms: C_14  and  O_15
REMARK                            x       y       z     vdW  Elec       q    Type
REMARK                         _______ _______ _______ _____ _____    ______ ____
ROOT
ATOM      1  N   UNL     1      -1.416  -0.224   0.914  1.00  0.00    +0.000 N 
ATOM      2  C   UNL     1      -0.403   0.704   0.870  1.00  0.00    +0.000 C 
ATOM      3  O   UNL     1      -0.522   1.875   1.206  1.00  0.00    +0.000 OA
ATOM      4  H   UNL     1      -1.186  -1.201   0.801  1.00  0.00    +0.000 HD
ENDROOT
BRANCH   2   5
ATOM      5  C   UNL     1       0.878   0.133   0.382  1.00  0.00    +0.000 C 
ATOM      6  C   UNL     1       1.975   0.904   0.339  1.00  0.00    +0.000 C 
BRANCH   6   7
ATOM      7  C   UNL     1       3.290   0.434  -0.114  1.00  0.00    +0.000 A 
ATOM      8  C   UNL     1       4.438   0.911   0.534  1.00  0.00    +0.000 A 
ATOM      9  C   UNL     1       5.712   0.507   0.122  1.00  0.00    +0.000 A 
ATOM     10  C   UNL     1       5.837  -0.368  -0.951  1.00  0.00    +0.000 A 
ATOM     11  C   UNL     1       4.713  -0.839  -1.617  1.00  0.00    +0.000 A 
ATOM     12  C   UNL     1       3.441  -0.435  -1.204  1.00  0.00    +0.000 A 
BRANCH  10  13
ATOM     13  O   UNL     1       7.057  -0.788  -1.388  1.00  0.00    +0.000 OA
ATOM     14  H   UNL     1       7.743  -0.368  -0.843  1.00  0.00    +0.000 HD
ENDBRANCH  10  13
ENDBRANCH   6   7
ENDBRANCH   2   5
BRANCH   1  15
ATOM     15  C   UNL     1      -2.697   0.107   1.504  1.00  0.00    +0.000 C 
BRANCH  15  16
ATOM     16  C   UNL     1      -3.811  -0.816   1.016  1.00  0.00    +0.000 C 
BRANCH  16  17
ATOM     17  C   UNL     1      -4.067  -0.762  -0.495  1.00  0.00    +0.000 C 
BRANCH  17  18
ATOM     18  C   UNL     1      -4.442   0.613  -1.054  1.00  0.00    +0.000 C 
BRANCH  18  19
ATOM     19  N   UNL     1      -5.673   1.141  -0.480  1.00  0.00    +0.000 NA
ATOM     20  H   UNL     1      -6.413   0.443  -0.538  1.00  0.00    +0.000 HD
ATOM     21  H   UNL     1      -5.543   1.346   0.508  1.00  0.00    +0.000 HD
ENDBRANCH  18  19
ENDBRANCH  17  18
ENDBRANCH  16  17
ENDBRANCH  15  16
ENDBRANCH   1  15
TORSDOF 8
