REMARK  Name = SANCDB_01082_minRM1.pdb
AUTHORGENERATED BY OPEN BABEL 2.3.2
REMARK  11 active torsions:
REMARK  status: ('A' for Active; 'I' for Inactive)
REMARK    1  A    between atoms: C_1  and  C_2
REMARK    2  A    between atoms: C_2  and  C_3
REMARK    3  A    between atoms: C_3  and  C_4
REMARK    4  A    between atoms: C_4  and  C_5
REMARK    5  A    between atoms: C_5  and  C_6
REMARK    6  A    between atoms: C_7  and  C_8
REMARK    7  A    between atoms: C_9  and  C_10
REMARK    8  A    between atoms: N_12  and  C_13
REMARK    9  A    between atoms: C_13  and  C_14
REMARK   10  A    between atoms: C_14  and  C_15
REMARK   11  A    between atoms: C_14  and  C_16
REMARK                            x       y       z     vdW  Elec       q    Type
REMARK                         _______ _______ _______ _____ _____    ______ ____
ROOT
ATOM      1  C   UNL     1      -0.700   0.101  -1.343  1.00  0.00    +0.000 C 
ATOM      2  C   UNL     1      -1.560  -0.636  -2.061  1.00  0.00    +0.000 C 
ENDROOT
BRANCH   2   3
ATOM      3  C   UNL     1      -3.034  -0.569  -1.907  1.00  0.00    +0.000 C 
ATOM      4  O   UNL     1      -3.760  -0.788  -2.869  1.00  0.00    +0.000 OA
ATOM      5  N   UNL     1      -3.480  -0.327  -0.632  1.00  0.00    +0.000 N 
ATOM      6  H   UNL     1      -2.818  -0.434   0.125  1.00  0.00    +0.000 HD
BRANCH   5   7
ATOM      7  C   UNL     1      -4.891  -0.408  -0.314  1.00  0.00    +0.000 C 
BRANCH   7   8
ATOM      8  C   UNL     1      -5.226   0.294   1.008  1.00  0.00    +0.000 C 
ATOM      9  C   UNL     1      -6.675   0.007   1.403  1.00  0.00    +0.000 C 
ATOM     10  C   UNL     1      -4.998   1.804   0.914  1.00  0.00    +0.000 C 
ENDBRANCH   7   8
ENDBRANCH   5   7
ENDBRANCH   2   3
BRANCH   1  12
ATOM     11  C   UNL     1       1.594   0.779  -0.827  1.00  0.00    +0.000 C 
ATOM     12  C   UNL     1       0.731   0.039  -1.538  1.00  0.00    +0.000 C 
BRANCH  11  13
ATOM     13  C   UNL     1       3.085   0.736  -1.019  1.00  0.00    +0.000 C 
BRANCH  13  14
ATOM     14  C   UNL     1       3.793   0.252   0.248  1.00  0.00    +0.000 C 
BRANCH  14  15
ATOM     15  C   UNL     1       5.311   0.220   0.058  1.00  0.00    +0.000 C 
BRANCH  15  17
ATOM     16  C   UNL     1       7.529  -0.297   1.137  1.00  0.00    +0.000 C 
ATOM     17  C   UNL     1       6.020  -0.263   1.323  1.00  0.00    +0.000 C 
ENDBRANCH  15  17
ENDBRANCH  14  15
ENDBRANCH  13  14
ENDBRANCH  11  13
ENDBRANCH   1  12
TORSDOF 8
