REMARK  Name = /srv/my_project/app/compsite/backup/Dave/CORINA_stuff/newPDBs/SANC00665.pdb
AUTHORGENERATED BY OPEN BABEL 2.3.2
REMARK  15 active torsions:
REMARK  status: ('A' for Active; 'I' for Inactive)
REMARK    1  A    between atoms: C_2  and  O_3
REMARK    2  A    between atoms: O_3  and  C_4
REMARK    3  A    between atoms: C_6  and  O_8
REMARK    4  A    between atoms: C_9  and  O_11
REMARK    5  A    between atoms: C_14  and  O_16
REMARK    6  A    between atoms: O_16  and  C_17
REMARK    7  A    between atoms: C_20  and  O_22
REMARK    8  A    between atoms: C_33  and  C_34
REMARK    9  A    between atoms: C_44  and  C_46
REMARK   10  A    between atoms: C_49  and  C_51
REMARK   11  A    between atoms: C_54  and  C_55
REMARK   12  A    between atoms: C_57  and  C_59
REMARK   13  A    between atoms: C_60  and  O_62
REMARK   14  A    between atoms: C_63  and  O_65
REMARK   15  A    between atoms: C_66  and  O_68
REMARK                            x       y       z     vdW  Elec       q    Type
REMARK                         _______ _______ _______ _____ _____    ______ ____
ROOT
ATOM      1  C   UNL     1      -2.330   0.907  -1.593  1.00  0.00    +0.000 C 
ATOM      2  C   UNL     1      -3.709   0.555  -2.215  1.00  0.00    +0.000 C 
ATOM      3  C   UNL     1      -3.727  -0.468  -3.341  1.00  0.00    +0.000 C 
ATOM      4  C   UNL     1      -2.420  -0.502  -4.120  1.00  0.00    +0.000 C 
ATOM      5  C   UNL     1      -1.183  -0.654  -3.268  1.00  0.00    +0.000 C 
ATOM      6  C   UNL     1      -0.056  -1.100  -3.857  1.00  0.00    +0.000 C 
ATOM      7  C   UNL     1       1.294  -1.153  -3.212  1.00  0.00    +0.000 C 
ATOM      8  C   UNL     1       1.317  -0.725  -1.736  1.00  0.00    +0.000 C 
ATOM      9  C   UNL     1       0.231   0.365  -1.454  1.00  0.00    +0.000 C 
ATOM     10  C   UNL     1       0.384   1.018  -0.055  1.00  0.00    +0.000 C 
ATOM     11  C   UNL     1       1.825   1.393   0.334  1.00  0.00    +0.000 C 
ATOM     12  C   UNL     1       2.792   0.218   0.146  1.00  0.00    +0.000 C 
ATOM     13  C   UNL     1       2.416  -0.918   1.129  1.00  0.00    +0.000 C 
ATOM     14  C   UNL     1       2.699  -0.202  -1.339  1.00  0.00    +0.000 C 
ATOM     15  C   UNL     1       3.912  -1.109  -1.514  1.00  0.00    +0.000 C 
ATOM     16  C   UNL     1       4.997  -0.302  -0.799  1.00  0.00    +0.000 C 
ATOM     17  O   UNL     1       5.928  -1.107  -0.084  1.00  0.00    +0.000 OA
ATOM     18  C   UNL     1       6.379  -0.292   1.019  1.00  0.00    +0.000 C 
ATOM     19  C   UNL     1       7.019  -1.211   2.063  1.00  0.00    +0.000 C 
ATOM     20  C   UNL     1       8.305  -1.835   1.522  1.00  0.00    +0.000 C 
ATOM     21  C   UNL     1       9.184  -0.811   0.788  1.00  0.00    +0.000 C 
ATOM     22  C   UNL     1       9.343  -1.183  -0.689  1.00  0.00    +0.000 C 
ATOM     23  C   UNL     1       8.621   0.603   0.940  1.00  0.00    +0.000 C 
ATOM     24  O   UNL     1       7.266   0.713   0.520  1.00  0.00    +0.000 OA
ATOM     25  C   UNL     1       5.079   0.362   1.523  1.00  0.00    +0.000 C 
ATOM     26  C   UNL     1       5.268   1.631   2.345  1.00  0.00    +0.000 C 
ATOM     27  C   UNL     1       4.296   0.612   0.230  1.00  0.00    +0.000 C 
ATOM     28  C   UNL     1      -1.221  -0.192  -1.798  1.00  0.00    +0.000 C 
ATOM     29  C   UNL     1      -1.540  -1.419  -0.903  1.00  0.00    +0.000 C 
ENDROOT
BRANCH   3  30
ATOM     30  O   UNL     1      -4.082  -1.753  -2.818  1.00  0.00    +0.000 OA
ATOM     31  H   UNL     1      -3.780  -2.424  -3.458  1.00  0.00    +0.000 HD
ENDBRANCH   3  30
BRANCH   1  32
ATOM     32  O   UNL     1      -2.524   1.147  -0.184  1.00  0.00    +0.000 OA
BRANCH  32  38
ATOM     33  C   UNL     1      -4.144   2.040   1.407  1.00  0.00    +0.000 C 
ATOM     34  C   UNL     1      -4.343   3.367   2.143  1.00  0.00    +0.000 C 
ATOM     35  C   UNL     1      -2.988   3.932   2.587  1.00  0.00    +0.000 C 
ATOM     36  C   UNL     1      -1.889   3.587   1.579  1.00  0.00    +0.000 C 
ATOM     37  O   UNL     1      -2.425   3.453   0.264  1.00  0.00    +0.000 OA
ATOM     38  C   UNL     1      -3.287   2.313   0.137  1.00  0.00    +0.000 C 
BRANCH  34  39
ATOM     39  O   UNL     1      -5.181   3.196   3.300  1.00  0.00    +0.000 OA
ATOM     40  H   UNL     1      -6.003   2.784   2.970  1.00  0.00    +0.000 HD
ENDBRANCH  34  39
BRANCH  35  41
ATOM     41  O   UNL     1      -2.635   3.409   3.872  1.00  0.00    +0.000 OA
ATOM     42  H   UNL     1      -3.488   3.331   4.351  1.00  0.00    +0.000 HD
ENDBRANCH  35  41
BRANCH  33  43
ATOM     43  O   UNL     1      -5.447   1.545   1.025  1.00  0.00    +0.000 OA
BRANCH  43  44
ATOM     44  C   UNL     1      -5.695   0.199   1.465  1.00  0.00    +0.000 C 
ATOM     45  O   UNL     1      -4.689  -0.663   0.932  1.00  0.00    +0.000 OA
ATOM     46  C   UNL     1      -4.987  -2.061   0.958  1.00  0.00    +0.000 C 
ATOM     47  C   UNL     1      -5.062  -2.588   2.390  1.00  0.00    +0.000 C 
ATOM     48  C   UNL     1      -6.240  -2.374   0.121  1.00  0.00    +0.000 C 
ATOM     49  C   UNL     1      -7.043  -1.109  -0.213  1.00  0.00    +0.000 C 
ATOM     50  C   UNL     1      -7.120  -0.173   0.988  1.00  0.00    +0.000 C 
BRANCH  48  51
ATOM     51  O   UNL     1      -5.888  -2.995  -1.130  1.00  0.00    +0.000 OA
ATOM     52  H   UNL     1      -5.206  -2.434  -1.567  1.00  0.00    +0.000 HD
ENDBRANCH  48  51
BRANCH  49  53
ATOM     53  O   UNL     1      -8.375  -1.490  -0.606  1.00  0.00    +0.000 OA
ATOM     54  H   UNL     1      -8.252  -2.185  -1.284  1.00  0.00    +0.000 HD
ENDBRANCH  49  53
BRANCH  50  55
ATOM     55  O   UNL     1      -7.864  -0.831   2.031  1.00  0.00    +0.000 OA
ATOM     56  H   UNL     1      -8.676  -1.154   1.588  1.00  0.00    +0.000 HD
ENDBRANCH  50  55
ENDBRANCH  43  44
ENDBRANCH  33  43
ENDBRANCH  32  38
ENDBRANCH   1  32
TORSDOF 10
