REMARK  Name = SANCDB_00734_minRM1.pdb
AUTHORGENERATED BY OPEN BABEL 2.3.2
REMARK  11 active torsions:
REMARK  status: ('A' for Active; 'I' for Inactive)
REMARK    1  A    between atoms: C_1  and  C_2
REMARK    2  A    between atoms: C_6  and  C_7
REMARK    3  A    between atoms: C_7  and  C_8
REMARK    4  A    between atoms: C_7  and  C_9
REMARK    5  A    between atoms: C_12  and  C_13
REMARK    6  A    between atoms: C_14  and  O_15
REMARK    7  A    between atoms: C_18  and  C_19
REMARK    8  A    between atoms: C_21  and  O_22
REMARK    9  A    between atoms: O_22  and  C_23
REMARK   10  A    between atoms: C_23  and  C_25
REMARK   11  A    between atoms: C_25  and  C_26
REMARK                            x       y       z     vdW  Elec       q    Type
REMARK                         _______ _______ _______ _____ _____    ______ ____
ROOT
ATOM      1  C   UNL     1       0.023   2.994   0.931  1.00  0.00    +0.000 C 
ATOM      2  C   UNL     1      -1.136   2.171   0.435  1.00  0.00    +0.000 C 
ATOM      3  C   UNL     1      -2.366   2.712   0.425  1.00  0.00    +0.000 C 
ATOM      4  C   UNL     1      -3.550   2.010  -0.122  1.00  0.00    +0.000 C 
ATOM      5  O   UNL     1      -4.625   2.610  -0.136  1.00  0.00    +0.000 OA
ATOM      6  C   UNL     1      -3.412   0.582  -0.638  1.00  0.00    +0.000 C 
ATOM      7  C   UNL     1      -2.144  -0.116  -0.057  1.00  0.00    +0.000 C 
ATOM      8  C   UNL     1      -2.454  -0.556   1.379  1.00  0.00    +0.000 C 
ATOM      9  C   UNL     1      -2.136  -1.694   2.040  1.00  0.00    +0.000 C 
ATOM     10  C   UNL     1      -2.646  -1.854   3.461  1.00  0.00    +0.000 C 
ATOM     11  C   UNL     1      -1.293  -2.860   1.547  1.00  0.00    +0.000 C 
ATOM     12  C   UNL     1      -0.024  -3.019   2.307  1.00  0.00    +0.000 C 
ATOM     13  C   UNL     1       1.025  -2.812   1.512  1.00  0.00    +0.000 C 
ATOM     14  C   UNL     1       0.544  -2.541   0.124  1.00  0.00    +0.000 C 
ATOM     15  C   UNL     1       1.064  -3.628  -0.825  1.00  0.00    +0.000 C 
ATOM     16  O   UNL     1      -0.888  -2.695   0.188  1.00  0.00    +0.000 OA
ATOM     17  C   UNL     1       0.892  -1.125  -0.421  1.00  0.00    +0.000 C 
ATOM     18  C   UNL     1       0.406   0.077   0.436  1.00  0.00    +0.000 C 
ATOM     19  C   UNL     1      -0.867   0.775  -0.127  1.00  0.00    +0.000 C 
ENDROOT
BRANCH   6  20
ATOM     20  C   UNL     1      -3.578   0.466  -2.182  1.00  0.00    +0.000 C 
ATOM     21  C   UNL     1      -5.004   0.833  -2.622  1.00  0.00    +0.000 C 
ATOM     22  C   UNL     1      -2.578   1.259  -3.022  1.00  0.00    +0.000 C 
ENDBRANCH   6  20
BRANCH  11  23
ATOM     23  O   UNL     1      -2.024  -4.061   1.639  1.00  0.00    +0.000 OA
ATOM     24  H   UNL     1      -2.851  -3.869   1.170  1.00  0.00    +0.000 HD
ENDBRANCH  11  23
BRANCH  17  25
ATOM     25  O   UNL     1       2.337  -1.037  -0.541  1.00  0.00    +0.000 OA
BRANCH  25  26
ATOM     26  C   UNL     1       2.806  -0.190  -1.501  1.00  0.00    +0.000 C 
ATOM     27  O   UNL     1       2.109   0.435  -2.290  1.00  0.00    +0.000 OA
BRANCH  26  28
ATOM     28  C   UNL     1       4.310  -0.091  -1.431  1.00  0.00    +0.000 C 
BRANCH  28  29
ATOM     29  C   UNL     1       4.768   0.821  -0.322  1.00  0.00    +0.000 A 
ATOM     30  C   UNL     1       5.215   0.293   0.896  1.00  0.00    +0.000 A 
ATOM     31  C   UNL     1       5.609   1.143   1.931  1.00  0.00    +0.000 A 
ATOM     32  C   UNL     1       5.555   2.525   1.759  1.00  0.00    +0.000 A 
ATOM     33  C   UNL     1       5.105   3.060   0.553  1.00  0.00    +0.000 A 
ATOM     34  C   UNL     1       4.711   2.212  -0.483  1.00  0.00    +0.000 A 
ENDBRANCH  28  29
ENDBRANCH  26  28
ENDBRANCH  25  26
ENDBRANCH  17  25
TORSDOF 6
