REMARK  Name = /srv/my_project/app/compsite/backup/Dave/CORINA_stuff/newPDBs/SANC00525.pdb
AUTHORGENERATED BY OPEN BABEL 2.3.2
REMARK  11 active torsions:
REMARK  status: ('A' for Active; 'I' for Inactive)
REMARK    1  A    between atoms: C_9  and  C_10
REMARK    2  A    between atoms: C_11  and  C_12
REMARK    3  A    between atoms: C_18  and  C_20
REMARK    4  A    between atoms: C_20  and  C_22
REMARK    5  A    between atoms: C_22  and  C_23
REMARK    6  A    between atoms: C_25  and  C_27
REMARK    7  A    between atoms: C_28  and  C_29
REMARK    8  A    between atoms: C_32  and  O_34
REMARK    9  A    between atoms: C_35  and  C_36
REMARK   10  A    between atoms: C_35  and  C_37
REMARK   11  A    between atoms: C_37  and  O_38
REMARK                            x       y       z     vdW  Elec       q    Type
REMARK                         _______ _______ _______ _____ _____    ______ ____
ROOT
ATOM      1  C   UNL     1      -3.568   0.469   0.399  1.00  0.00    +0.000 C 
ATOM      2  C   UNL     1      -3.231   1.461  -0.724  1.00  0.00    +0.000 C 
ATOM      3  C   UNL     1      -1.742   1.813  -0.731  1.00  0.00    +0.000 C 
ATOM      4  C   UNL     1      -0.804   0.730  -0.250  1.00  0.00    +0.000 C 
ATOM      5  C   UNL     1      -1.227  -0.487   0.187  1.00  0.00    +0.000 C 
ATOM      6  C   UNL     1      -0.233  -1.575   0.613  1.00  0.00    +0.000 C 
ATOM      7  C   UNL     1       1.274  -1.278   0.447  1.00  0.00    +0.000 C 
ATOM      8  C   UNL     1       1.535  -0.194  -0.606  1.00  0.00    +0.000 C 
ATOM      9  C   UNL     1       1.069  -0.742  -2.001  1.00  0.00    +0.000 C 
ATOM     10  C   UNL     1       0.680   1.078  -0.196  1.00  0.00    +0.000 C 
ATOM     11  C   UNL     1       0.902   1.692   1.215  1.00  0.00    +0.000 C 
ATOM     12  C   UNL     1       1.343   2.071  -1.163  1.00  0.00    +0.000 C 
ATOM     13  O   UNL     1       0.809   3.067  -1.639  1.00  0.00    +0.000 OA
ATOM     14  C   UNL     1       2.795   1.706  -1.443  1.00  0.00    +0.000 C 
ATOM     15  C   UNL     1       2.997   0.368  -0.689  1.00  0.00    +0.000 C 
ATOM     16  O   UNL     1       3.433   0.682   0.660  1.00  0.00    +0.000 OA
ATOM     17  C   UNL     1       4.607  -0.049   1.015  1.00  0.00    +0.000 C 
ATOM     18  C   UNL     1       4.769  -1.118  -0.042  1.00  0.00    +0.000 C 
ATOM     19  C   UNL     1       4.184  -0.436  -1.266  1.00  0.00    +0.000 C 
ATOM     20  C   UNL     1       4.008  -1.404  -2.419  1.00  0.00    +0.000 C 
ATOM     21  C   UNL     1      -2.735  -0.859   0.214  1.00  0.00    +0.000 C 
ATOM     22  C   UNL     1      -2.993  -1.611  -1.114  1.00  0.00    +0.000 C 
ATOM     23  C   UNL     1      -3.072  -1.805   1.395  1.00  0.00    +0.000 C 
ATOM     24  C   UNL     1      -4.568  -2.031   1.593  1.00  0.00    +0.000 C 
ATOM     25  C   UNL     1      -5.299  -0.718   1.839  1.00  0.00    +0.000 C 
ATOM     26  C   UNL     1      -5.110   0.318   0.688  1.00  0.00    +0.000 C 
ATOM     27  C   UNL     1      -5.667   1.673   1.220  1.00  0.00    +0.000 C 
ENDROOT
BRANCH  17  28
ATOM     28  C   UNL     1       5.848   0.858   1.081  1.00  0.00    +0.000 C 
ATOM     29  O   UNL     1       5.928   1.908   0.443  1.00  0.00    +0.000 OA
BRANCH  28  30
ATOM     30  C   UNL     1       6.980   0.363   1.969  1.00  0.00    +0.000 C 
ATOM     31  C   UNL     1       8.181   1.290   1.956  1.00  0.00    +0.000 C 
ENDBRANCH  28  30
ENDBRANCH  17  28
BRANCH  25  32
ATOM     32  O   UNL     1      -6.664  -1.018   2.121  1.00  0.00    +0.000 OA
ATOM     33  H   UNL     1      -7.197  -0.743   1.344  1.00  0.00    +0.000 HD
ENDBRANCH  25  32
BRANCH  26  34
ATOM     34  C   UNL     1      -5.934  -0.037  -0.576  1.00  0.00    +0.000 C 
BRANCH  34  35
ATOM     35  O   UNL     1      -7.327  -0.128  -0.267  1.00  0.00    +0.000 OA
ATOM     36  H   UNL     1      -7.798  -0.232  -1.115  1.00  0.00    +0.000 HD
ENDBRANCH  34  35
ENDBRANCH  26  34
TORSDOF 5
