REMARK  Name = /srv/my_project/app/compsite/backup/Dave/CORINA_stuff/newPDBs/SANC00308.pdb
AUTHORGENERATED BY OPEN BABEL 2.3.2
REMARK  6 active torsions:
REMARK  status: ('A' for Active; 'I' for Inactive)
REMARK    1  A    between atoms: C_1  and  C_2
REMARK    2  A    between atoms: C_6  and  C_7
REMARK    3  A    between atoms: C_6  and  C_8
REMARK    4  A    between atoms: C_11  and  C_12
REMARK    5  A    between atoms: C_17  and  C_19
REMARK    6  A    between atoms: C_25  and  O_26
REMARK                            x       y       z     vdW  Elec       q    Type
REMARK                         _______ _______ _______ _____ _____    ______ ____
ROOT
ATOM      1  C   UNL     1       0.697   3.295   2.050  1.00  0.00    +0.000 C 
ATOM      2  C   UNL     1       0.040   2.133   1.306  1.00  0.00    +0.000 C 
ATOM      3  C   UNL     1      -1.295   1.754   1.941  1.00  0.00    +0.000 C 
ATOM      4  C   UNL     1      -1.888   0.454   1.483  1.00  0.00    +0.000 C 
ATOM      5  C   UNL     1      -2.814   0.339   0.274  1.00  0.00    +0.000 C 
ATOM      6  C   UNL     1      -4.030  -0.549   0.421  1.00  0.00    +0.000 C 
ATOM      7  C   UNL     1      -3.082   1.543  -0.595  1.00  0.00    +0.000 C 
ATOM      8  C   UNL     1      -1.440  -0.325   0.265  1.00  0.00    +0.000 C 
ATOM      9  O   UNL     1      -1.425  -1.779   0.413  1.00  0.00    +0.000 OA
ATOM     10  C   UNL     1      -0.509  -2.305  -0.575  1.00  0.00    +0.000 C 
ATOM     11  C   UNL     1      -1.024  -3.629  -1.113  1.00  0.00    +0.000 C 
ATOM     12  C   UNL     1       0.865  -2.418   0.053  1.00  0.00    +0.000 C 
ATOM     13  C   UNL     1       1.565  -1.287   0.230  1.00  0.00    +0.000 C 
ATOM     14  C   UNL     1       3.046  -1.220   0.298  1.00  0.00    +0.000 C 
ATOM     15  O   UNL     1       3.764  -2.146   0.638  1.00  0.00    +0.000 OA
ATOM     16  C   UNL     1       3.501   0.138  -0.197  1.00  0.00    +0.000 C 
ATOM     17  C   UNL     1       4.644   0.042  -1.190  1.00  0.00    +0.000 C 
ATOM     18  C   UNL     1       2.205   0.706  -0.836  1.00  0.00    +0.000 C 
ATOM     19  C   UNL     1       1.039   0.107  -0.021  1.00  0.00    +0.000 C 
ATOM     20  C   UNL     1       0.958   0.915   1.298  1.00  0.00    +0.000 C 
ATOM     21  O   UNL     1       1.633   0.631   2.288  1.00  0.00    +0.000 OA
ATOM     22  C   UNL     1      -0.351   0.055  -0.729  1.00  0.00    +0.000 C 
ATOM     23  C   UNL     1      -0.492  -1.179  -1.652  1.00  0.00    +0.000 C 
ENDROOT
BRANCH  23  24
ATOM     24  O   UNL     1       0.521  -1.269  -2.639  1.00  0.00    +0.000 OA
ATOM     25  H   UNL     1       0.431  -2.132  -3.081  1.00  0.00    +0.000 HD
ENDBRANCH  23  24
TORSDOF 1
