REMARK  Name = /srv/my_project/app/compsite/backup/Dave/CORINA_stuff/newPDBs/SANC00312.pdb
AUTHORGENERATED BY OPEN BABEL 2.3.2
REMARK  5 active torsions:
REMARK  status: ('A' for Active; 'I' for Inactive)
REMARK    1  A    between atoms: C_4  and  C_5
REMARK    2  A    between atoms: C_8  and  O_9
REMARK    3  A    between atoms: C_13  and  C_14
REMARK    4  A    between atoms: C_14  and  C_15
REMARK    5  A    between atoms: C_18  and  O_19
REMARK                            x       y       z     vdW  Elec       q    Type
REMARK                         _______ _______ _______ _____ _____    ______ ____
ROOT
ATOM      1  O   UNL     1      -0.067   0.608  -4.861  1.00  0.00    +0.000 OA
ATOM      2  C   UNL     1      -0.240   0.257  -3.700  1.00  0.00    +0.000 C 
ATOM      3  C   UNL     1      -1.359   0.758  -2.821  1.00  0.00    +0.000 C 
ATOM      4  C   UNL     1      -1.069  -0.005  -1.587  1.00  0.00    +0.000 C 
ATOM      5  C   UNL     1       0.026  -0.741  -1.774  1.00  0.00    +0.000 C 
ATOM      6  O   UNL     1       0.574  -0.642  -3.056  1.00  0.00    +0.000 OA
ENDROOT
BRANCH   4   7
ATOM      7  C   UNL     1      -1.854   0.155  -0.369  1.00  0.00    +0.000 A 
ATOM      8  C   UNL     1      -1.922   1.401   0.265  1.00  0.00    +0.000 A 
ATOM      9  C   UNL     1      -2.650   1.558   1.448  1.00  0.00    +0.000 A 
ATOM     10  C   UNL     1      -3.319   0.467   1.999  1.00  0.00    +0.000 A 
ATOM     11  C   UNL     1      -3.265  -0.778   1.369  1.00  0.00    +0.000 A 
ATOM     12 BR   UNL     1      -4.161  -2.290   2.082  1.00  0.00    +0.000 Br
ATOM     13  C   UNL     1      -2.535  -0.934   0.188  1.00  0.00    +0.000 A 
BRANCH  10  14
ATOM     14  O   UNL     1      -4.027   0.619   3.158  1.00  0.00    +0.000 OA
ATOM     15  H   UNL     1      -3.931   1.530   3.480  1.00  0.00    +0.000 HD
ENDBRANCH  10  14
ENDBRANCH   4   7
BRANCH   5  16
ATOM     16  C   UNL     1       0.754  -1.629  -0.810  1.00  0.00    +0.000 C 
BRANCH  16  17
ATOM     17  C   UNL     1       1.817  -0.882  -0.038  1.00  0.00    +0.000 A 
ATOM     18  C   UNL     1       3.093  -0.684  -0.586  1.00  0.00    +0.000 A 
ATOM     19  C   UNL     1       4.062   0.040   0.112  1.00  0.00    +0.000 A 
ATOM     20  C   UNL     1       3.760   0.581   1.361  1.00  0.00    +0.000 A 
ATOM     21  C   UNL     1       2.492   0.397   1.916  1.00  0.00    +0.000 A 
ATOM     22 BR   UNL     1       2.028   1.127   3.603  1.00  0.00    +0.000 Br
ATOM     23  C   UNL     1       1.525  -0.333   1.220  1.00  0.00    +0.000 A 
BRANCH  20  24
ATOM     24  O   UNL     1       4.708   1.295   2.039  1.00  0.00    +0.000 OA
ATOM     25  H   UNL     1       5.529   1.310   1.521  1.00  0.00    +0.000 HD
ENDBRANCH  20  24
ENDBRANCH  16  17
ENDBRANCH   5  16
TORSDOF 5
