REMARK  Name = /srv/my_project/app/compsite/backup/Dave/CORINA_stuff/newPDBs/SANC00470.pdb
AUTHORGENERATED BY OPEN BABEL 2.3.2
REMARK  6 active torsions:
REMARK  status: ('A' for Active; 'I' for Inactive)
REMARK    1  A    between atoms: C_1  and  O_2
REMARK    2  A    between atoms: O_2  and  C_3
REMARK    3  A    between atoms: C_5  and  O_6
REMARK    4  A    between atoms: C_11  and  C_12
REMARK    5  A    between atoms: C_14  and  O_15
REMARK    6  A    between atoms: C_20  and  O_21
REMARK                            x       y       z     vdW  Elec       q    Type
REMARK                         _______ _______ _______ _____ _____    ______ ____
ROOT
ATOM      1  C   UNL     1      -3.182   0.576  -0.016  1.00  0.00    +0.000 A 
ATOM      2  C   UNL     1      -3.075  -0.764  -0.378  1.00  0.00    +0.000 A 
ATOM      3  C   UNL     1      -1.810  -1.360  -0.476  1.00  0.00    +0.000 A 
ATOM      4  C   UNL     1      -0.638  -0.627  -0.216  1.00  0.00    +0.000 A 
ATOM      5  C   UNL     1       0.723  -1.209  -0.308  1.00  0.00    +0.000 A 
ATOM      6  O   UNL     1       0.902  -2.375  -0.633  1.00  0.00    +0.000 OA
ATOM      7  C   UNL     1       1.875  -0.327   0.006  1.00  0.00    +0.000 A 
ATOM      8  C   UNL     1       3.221  -0.764  -0.033  1.00  0.00    +0.000 A 
ATOM      9  C   UNL     1       3.616  -2.170  -0.397  1.00  0.00    +0.000 C 
ATOM     10  C   UNL     1       4.244   0.151   0.281  1.00  0.00    +0.000 A 
ATOM     11  C   UNL     1       3.934   1.462   0.624  1.00  0.00    +0.000 A 
ATOM     12  C   UNL     1       2.616   1.889   0.663  1.00  0.00    +0.000 A 
ATOM     13  C   UNL     1       1.588   0.995   0.354  1.00  0.00    +0.000 A 
ATOM     14  O   UNL     1       0.325   1.521   0.424  1.00  0.00    +0.000 OA
ATOM     15  C   UNL     1      -0.746   0.713   0.147  1.00  0.00    +0.000 A 
ATOM     16  C   UNL     1      -2.012   1.301   0.243  1.00  0.00    +0.000 A 
ENDROOT
BRANCH   1  18
ATOM     17  C   UNL     1      -5.561   0.592  -0.134  1.00  0.00    +0.000 C 
ATOM     18  O   UNL     1      -4.346   1.288   0.120  1.00  0.00    +0.000 OA
ENDBRANCH   1  18
BRANCH   3  19
ATOM     19  O   UNL     1      -1.745  -2.678  -0.833  1.00  0.00    +0.000 OA
ATOM     20  H   UNL     1      -2.628  -3.045  -0.987  1.00  0.00    +0.000 HD
ENDBRANCH   3  19
BRANCH  11  21
ATOM     21  O   UNL     1       4.905   2.366   0.932  1.00  0.00    +0.000 OA
ATOM     22  H   UNL     1       5.772   1.933   0.864  1.00  0.00    +0.000 HD
ENDBRANCH  11  21
BRANCH  16  23
ATOM     23  O   UNL     1      -2.117   2.623   0.600  1.00  0.00    +0.000 OA
ATOM     24  H   UNL     1      -3.074   2.820   0.605  1.00  0.00    +0.000 HD
ENDBRANCH  16  23
TORSDOF 4
