REMARK  Name = SANCDB_00745_minRM1.pdb
AUTHORGENERATED BY OPEN BABEL 2.3.2
REMARK  7 active torsions:
REMARK  status: ('A' for Active; 'I' for Inactive)
REMARK    1  A    between atoms: O_1  and  C_2
REMARK    2  A    between atoms: C_4  and  O_27
REMARK    3  A    between atoms: C_11  and  C_12
REMARK    4  A    between atoms: C_17  and  C_18
REMARK    5  A    between atoms: C_22  and  C_23
REMARK    6  A    between atoms: C_28  and  C_29
REMARK    7  A    between atoms: C_31  and  O_32
REMARK                            x       y       z     vdW  Elec       q    Type
REMARK                         _______ _______ _______ _____ _____    ______ ____
ROOT
ATOM      1  C   UNL     1      -6.710   0.572   0.485  1.00  0.00    +0.000 C 
ATOM      2  C   UNL     1      -5.890   1.026  -0.722  1.00  0.00    +0.000 C 
ATOM      3  C   UNL     1      -4.391   1.065  -0.390  1.00  0.00    +0.000 C 
ATOM      4  C   UNL     1      -3.564   1.589  -1.575  1.00  0.00    +0.000 C 
ATOM      5  C   UNL     1      -2.080   1.715  -1.220  1.00  0.00    +0.000 C 
ATOM      6  C   UNL     1      -1.491   0.408  -0.668  1.00  0.00    +0.000 C 
ATOM      7  C   UNL     1      -2.342  -0.152   0.520  1.00  0.00    +0.000 C 
ATOM      8  C   UNL     1      -1.694  -1.411   1.158  1.00  0.00    +0.000 C 
ATOM      9  C   UNL     1      -0.205  -1.221   1.509  1.00  0.00    +0.000 C 
ATOM     10  C   UNL     1       0.607  -0.717   0.306  1.00  0.00    +0.000 C 
ATOM     11  C   UNL     1       0.639  -1.820  -0.782  1.00  0.00    +0.000 C 
ATOM     12  C   UNL     1      -0.052   0.600  -0.178  1.00  0.00    +0.000 C 
ATOM     13  C   UNL     1       0.997   1.176  -1.123  1.00  0.00    +0.000 C 
ATOM     14  C   UNL     1       2.276   0.975  -0.309  1.00  0.00    +0.000 C 
ATOM     15  C   UNL     1       2.029  -0.195   0.669  1.00  0.00    +0.000 C 
ATOM     16  C   UNL     1       3.251  -1.099   0.461  1.00  0.00    +0.000 C 
ATOM     17  C   UNL     1       3.728  -1.733   1.761  1.00  0.00    +0.000 C 
ATOM     18  C   UNL     1       4.256  -0.160  -0.236  1.00  0.00    +0.000 C 
ATOM     19  O   UNL     1       4.880   0.682   0.742  1.00  0.00    +0.000 OA
ATOM     20  C   UNL     1       6.018   1.360   0.222  1.00  0.00    +0.000 C 
ATOM     21  C   UNL     1       7.164   0.364   0.014  1.00  0.00    +0.000 C 
ATOM     22  C   UNL     1       8.184   0.926  -0.975  1.00  0.00    +0.000 C 
ATOM     23  C   UNL     1       6.641  -1.014  -0.419  1.00  0.00    +0.000 C 
ATOM     24  C   UNL     1       5.288  -0.898  -1.109  1.00  0.00    +0.000 C 
ATOM     25  O   UNL     1       3.410   0.632  -1.098  1.00  0.00    +0.000 OA
ATOM     26  C   UNL     1      -3.858  -0.325   0.118  1.00  0.00    +0.000 C 
ATOM     27  C   UNL     1      -4.003  -1.429  -0.966  1.00  0.00    +0.000 C 
ATOM     28  C   UNL     1      -4.708  -0.749   1.352  1.00  0.00    +0.000 C 
ATOM     29  C   UNL     1      -6.214  -0.758   1.067  1.00  0.00    +0.000 C 
ENDROOT
BRANCH   1  30
ATOM     30  O   UNL     1      -8.079   0.425   0.088  1.00  0.00    +0.000 OA
ATOM     31  H   UNL     1      -8.522   0.039   0.869  1.00  0.00    +0.000 HD
ENDBRANCH   1  30
BRANCH   3  32
ATOM     32  O   UNL     1      -4.239   2.017   0.682  1.00  0.00    +0.000 OA
ATOM     33  H   UNL     1      -4.512   2.892   0.352  1.00  0.00    +0.000 HD
ENDBRANCH   3  32
BRANCH  29  34
ATOM     34  O   UNL     1      -6.944  -1.015   2.274  1.00  0.00    +0.000 OA
ATOM     35  H   UNL     1      -6.571  -1.821   2.672  1.00  0.00    +0.000 HD
ENDBRANCH  29  34
TORSDOF 3
