REMARK  Name = SANCDB_00966_minRM1.pdb
AUTHORGENERATED BY OPEN BABEL 2.3.2
REMARK  4 active torsions:
REMARK  status: ('A' for Active; 'I' for Inactive)
REMARK    1  A    between atoms: C_1  and  C_2
REMARK    2  A    between atoms: C_3  and  O_18
REMARK    3  A    between atoms: C_7  and  C_17
REMARK    4  A    between atoms: C_15  and  C_16
REMARK                            x       y       z     vdW  Elec       q    Type
REMARK                         _______ _______ _______ _____ _____    ______ ____
ROOT
ATOM      1  C   UNL     1      -1.635   1.681  -1.662  1.00  0.00    +0.000 C 
ATOM      2  C   UNL     1      -1.587   0.958  -0.305  1.00  0.00    +0.000 C 
ATOM      3  C   UNL     1      -2.944   0.267  -0.029  1.00  0.00    +0.000 C 
ATOM      4  C   UNL     1      -2.974  -0.450   1.319  1.00  0.00    +0.000 C 
ATOM      5  C   UNL     1      -1.806  -1.409   1.501  1.00  0.00    +0.000 C 
ATOM      6  C   UNL     1      -0.468  -0.696   1.277  1.00  0.00    +0.000 C 
ATOM      7  C   UNL     1      -0.373  -0.029  -0.150  1.00  0.00    +0.000 C 
ATOM      8  C   UNL     1       0.976   0.772  -0.258  1.00  0.00    +0.000 C 
ATOM      9  C   UNL     1       2.132  -0.025   0.247  1.00  0.00    +0.000 A 
ATOM     10  C   UNL     1       1.974  -1.103   1.092  1.00  0.00    +0.000 A 
ATOM     11  C   UNL     1       0.729  -1.617   1.606  1.00  0.00    +0.000 C 
ATOM     12  O   UNL     1       0.612  -2.636   2.281  1.00  0.00    +0.000 OA
ATOM     13  O   UNL     1       3.173  -1.665   1.386  1.00  0.00    +0.000 OA
ATOM     14  C   UNL     1       4.111  -0.930   0.732  1.00  0.00    +0.000 A 
ATOM     15  C   UNL     1       3.530   0.099   0.012  1.00  0.00    +0.000 A 
ATOM     16  C   UNL     1       4.222   1.104  -0.828  1.00  0.00    +0.000 C 
ATOM     17  C   UNL     1      -0.395  -1.105  -1.268  1.00  0.00    +0.000 C 
ENDROOT
BRANCH   3  18
ATOM     18  O   UNL     1      -3.998   1.228  -0.050  1.00  0.00    +0.000 OA
ATOM     19  H   UNL     1      -3.853   1.857   0.677  1.00  0.00    +0.000 HD
ENDBRANCH   3  18
TORSDOF 1
