REMARK  Name = /srv/my_project/app/compsite/backup/Dave/CORINA_stuff/newPDBs/SANC00451.pdb
AUTHORGENERATED BY OPEN BABEL 2.3.2
REMARK  7 active torsions:
REMARK  status: ('A' for Active; 'I' for Inactive)
REMARK    1  A    between atoms: C_1  and  O_2
REMARK    2  A    between atoms: O_2  and  C_3
REMARK    3  A    between atoms: C_4  and  O_17
REMARK    4  A    between atoms: C_7  and  C_9
REMARK    5  A    between atoms: C_9  and  C_10
REMARK    6  A    between atoms: C_10  and  N_11
REMARK    7  A    between atoms: O_17  and  C_18
REMARK                            x       y       z     vdW  Elec       q    Type
REMARK                         _______ _______ _______ _____ _____    ______ ____
ROOT
ATOM      1  C   UNL     1      -1.279  -0.627   0.161  1.00  0.00    +0.000 A 
ATOM      2  C   UNL     1      -1.611   0.543  -0.539  1.00  0.00    +0.000 A 
ATOM      3  C   UNL     1      -0.695   1.608  -0.644  1.00  0.00    +0.000 A 
ATOM      4  C   UNL     1       0.605   1.476  -0.076  1.00  0.00    +0.000 A 
ATOM      5  C   UNL     1       0.955   0.284   0.598  1.00  0.00    +0.000 A 
ATOM      6  C   UNL     1       0.000  -0.749   0.707  1.00  0.00    +0.000 A 
ATOM      7  S   UNL     1       1.799   2.827  -0.231  1.00  0.00    +0.000 S 
ATOM      8  S   UNL     1       1.288   4.129   1.289  1.00  0.00    +0.000 S 
ATOM      9  S   UNL     1      -0.708   3.869   1.684  1.00  0.00    +0.000 S 
ATOM     10  S   UNL     1      -1.737   4.412  -0.005  1.00  0.00    +0.000 S 
ATOM     11  S   UNL     1      -1.185   3.117  -1.516  1.00  0.00    +0.000 S 
ENDROOT
BRANCH   1  13
ATOM     12  C   UNL     1      -2.018  -2.688   1.115  1.00  0.00    +0.000 C 
ATOM     13  O   UNL     1      -2.255  -1.585   0.249  1.00  0.00    +0.000 OA
ENDBRANCH   1  13
BRANCH   2  14
ATOM     14  O   UNL     1      -2.877   0.694  -1.062  1.00  0.00    +0.000 OA
ATOM     15  C   UNL     1      -3.007  -0.026  -2.288  1.00  0.00    +0.000 C 
ENDBRANCH   2  14
BRANCH   5  16
ATOM     16  C   UNL     1       2.322   0.040   1.214  1.00  0.00    +0.000 C 
BRANCH  16  17
ATOM     17  C   UNL     1       3.377  -0.454   0.213  1.00  0.00    +0.000 C 
BRANCH  17  18
ATOM     18  N   UNL     1       3.087  -1.798  -0.291  1.00  0.00    +0.000 NA
ATOM     19  H   UNL     1       2.235  -1.768  -0.852  1.00  0.00    +0.000 HD
ATOM     20  H   UNL     1       3.829  -2.078  -0.934  1.00  0.00    +0.000 HD
ENDBRANCH  17  18
ENDBRANCH  16  17
ENDBRANCH   5  16
TORSDOF 5
