REMARK  Name = SANCDB_00881_minRM1.pdb
AUTHORGENERATED BY OPEN BABEL 2.3.2
REMARK  9 active torsions:
REMARK  status: ('A' for Active; 'I' for Inactive)
REMARK    1  A    between atoms: C_1  and  C_2
REMARK    2  A    between atoms: C_2  and  C_26
REMARK    3  A    between atoms: C_3  and  C_4
REMARK    4  A    between atoms: C_4  and  C_5
REMARK    5  A    between atoms: C_8  and  O_12
REMARK    6  A    between atoms: C_10  and  O_11
REMARK    7  A    between atoms: O_12  and  C_13
REMARK    8  A    between atoms: C_17  and  C_19
REMARK    9  A    between atoms: C_22  and  O_25
REMARK                            x       y       z     vdW  Elec       q    Type
REMARK                         _______ _______ _______ _____ _____    ______ ____
ROOT
ATOM      1  C   UNL     1      -1.464   0.359  -0.432  1.00  0.00    +0.000 A 
ATOM      2  C   UNL     1      -0.140   0.819  -0.574  1.00  0.00    +0.000 A 
ATOM      3  C   UNL     1       0.136   2.154  -0.931  1.00  0.00    +0.000 A 
ATOM      4  C   UNL     1      -0.921   3.046  -1.189  1.00  0.00    +0.000 A 
ATOM      5  C   UNL     1      -2.235   2.589  -1.050  1.00  0.00    +0.000 A 
ATOM      6  C   UNL     1      -2.496   1.276  -0.659  1.00  0.00    +0.000 A 
ATOM      7  C   UNL     1       1.570   2.573  -0.988  1.00  0.00    +0.000 C 
ATOM      8  O   UNL     1       1.936   3.688  -1.345  1.00  0.00    +0.000 OA
ATOM      9  C   UNL     1       2.582   1.562  -0.530  1.00  0.00    +0.000 C 
ATOM     10  C   UNL     1       2.092   0.196  -0.964  1.00  0.00    +0.000 C 
ATOM     11  O   UNL     1       0.850  -0.100  -0.314  1.00  0.00    +0.000 OA
ENDROOT
BRANCH  10  12
ATOM     12  C   UNL     1       3.100  -0.879  -0.601  1.00  0.00    +0.000 A 
ATOM     13  C   UNL     1       4.004  -1.345  -1.569  1.00  0.00    +0.000 A 
ATOM     14  C   UNL     1       4.951  -2.318  -1.244  1.00  0.00    +0.000 A 
ATOM     15  C   UNL     1       5.002  -2.828   0.046  1.00  0.00    +0.000 A 
ATOM     16  C   UNL     1       4.122  -2.379   1.024  1.00  0.00    +0.000 A 
ATOM     17  C   UNL     1       3.175  -1.404   0.701  1.00  0.00    +0.000 A 
BRANCH  15  18
ATOM     18  O   UNL     1       5.943  -3.777   0.318  1.00  0.00    +0.000 OA
ATOM     19  H   UNL     1       5.860  -4.036   1.250  1.00  0.00    +0.000 HD
ENDBRANCH  15  18
ENDBRANCH  10  12
BRANCH   6  20
ATOM     20  O   UNL     1      -3.817   0.953  -0.515  1.00  0.00    +0.000 OA
ATOM     21  H   UNL     1      -3.889   0.187   0.079  1.00  0.00    +0.000 HD
ENDBRANCH   6  20
BRANCH   4  22
ATOM     22  O   UNL     1      -0.605   4.327  -1.546  1.00  0.00    +0.000 OA
ATOM     23  C   UNL     1      -1.660   5.228  -1.852  1.00  0.00    +0.000 C 
ENDBRANCH   4  22
BRANCH   1  24
ATOM     24  C   UNL     1      -1.753  -1.082  -0.059  1.00  0.00    +0.000 C 
BRANCH  24  27
ATOM     25  C   UNL     1      -3.365  -1.841   3.443  1.00  0.00    +0.000 C 
ATOM     26  C   UNL     1      -3.200  -1.793   1.945  1.00  0.00    +0.000 C 
ATOM     27  C   UNL     1      -2.102  -1.232   1.399  1.00  0.00    +0.000 C 
ATOM     28  C   UNL     1      -4.335  -2.425   1.185  1.00  0.00    +0.000 C 
ENDBRANCH  24  27
ENDBRANCH   1  24
TORSDOF 6
