REMARK  Name = /srv/my_project/app/compsite/backup/Dave/CORINA_stuff/newPDBs/SANC00122.pdb
AUTHORGENERATED BY OPEN BABEL 2.3.2
REMARK  1 active torsions:
REMARK  status: ('A' for Active; 'I' for Inactive)
REMARK    1  A    between atoms: C_11  and  O_12
REMARK                            x       y       z     vdW  Elec       q    Type
REMARK                         _______ _______ _______ _____ _____    ______ ____
ROOT
ATOM      1  O   UNL     1      -2.719  -3.362   0.581  1.00  0.00    +0.000 OA
ATOM      2  C   UNL     1      -2.164  -2.279   0.422  1.00  0.00    +0.000 C 
ATOM      3  C   UNL     1      -0.646  -2.173   0.348  1.00  0.00    +0.000 C 
ATOM      4  N   UNL     1       0.054  -3.366   0.426  1.00  0.00    +0.000 N 
ATOM      5  C   UNL     1       1.413  -3.435   0.360  1.00  0.00    +0.000 C 
ATOM      6  C   UNL     1       2.163  -2.333   0.224  1.00  0.00    +0.000 C 
ATOM      7  C   UNL     1       1.537  -0.934   0.141  1.00  0.00    +0.000 C 
ATOM      8  C   UNL     1       2.074  -0.144   1.327  1.00  0.00    +0.000 C 
ATOM      9  C   UNL     1       2.831   0.962   1.211  1.00  0.00    +0.000 C 
ATOM     10 BR   UNL     1       3.377   1.915   2.730  1.00  0.00    +0.000 Br
ATOM     11  C   UNL     1       3.252   1.548  -0.119  1.00  0.00    +0.000 C 
ATOM     12  C   UNL     1       2.718   0.772  -1.306  1.00  0.00    +0.000 C 
ATOM     13 BR   UNL     1       3.154   1.477  -2.988  1.00  0.00    +0.000 Br
ATOM     14  C   UNL     1       1.966  -0.336  -1.193  1.00  0.00    +0.000 C 
ATOM     15  C   UNL     1      -0.002  -0.982   0.207  1.00  0.00    +0.000 C 
ATOM     16  C   UNL     1      -0.755   0.320   0.133  1.00  0.00    +0.000 C 
ATOM     17  N   UNL     1      -0.263   1.510   0.074  1.00  0.00    +0.000 NA
ATOM     18  C   UNL     1      -1.179   2.687   0.180  1.00  0.00    +0.000 C 
ATOM     19  C   UNL     1      -2.598   2.523  -0.420  1.00  0.00    +0.000 C 
ATOM     20  C   UNL     1      -3.112   1.168  -0.120  1.00  0.00    +0.000 A 
ATOM     21  C   UNL     1      -4.361   0.590  -0.056  1.00  0.00    +0.000 A 
ATOM     22  N   UNL     1      -4.187  -0.760   0.196  1.00  0.00    +0.000 N 
ATOM     23  H   UNL     1      -4.925  -1.450   0.273  1.00  0.00    +0.000 HD
ATOM     24  C   UNL     1      -2.845  -1.032   0.265  1.00  0.00    +0.000 A 
ATOM     25  C   UNL     1      -2.180   0.152   0.120  1.00  0.00    +0.000 A 
ATOM     26  H   UNL     1      -0.501  -4.215   0.534  1.00  0.00    +0.000 HD
ENDROOT
BRANCH  11  27
ATOM     27  O   UNL     1       4.682   1.538  -0.179  1.00  0.00    +0.000 OA
ATOM     28  H   UNL     1       4.920   1.825  -1.077  1.00  0.00    +0.000 HD
ENDBRANCH  11  27
TORSDOF 1
