REMARK  Name = /srv/my_project/app/compsite/backup/Dave/CORINA_stuff/newPDBs/SANC00194.pdb
AUTHORGENERATED BY OPEN BABEL 2.3.2
REMARK  11 active torsions:
REMARK  status: ('A' for Active; 'I' for Inactive)
REMARK    1  A    between atoms: C_2  and  C_3
REMARK    2  A    between atoms: C_3  and  C_5
REMARK    3  A    between atoms: C_5  and  C_6
REMARK    4  A    between atoms: C_6  and  C_7
REMARK    5  A    between atoms: C_7  and  C_8
REMARK    6  A    between atoms: C_8  and  C_16
REMARK    7  A    between atoms: C_9  and  C_10
REMARK    8  A    between atoms: C_12  and  C_13
REMARK    9  A    between atoms: C_16  and  O_17
REMARK   10  A    between atoms: O_17  and  C_18
REMARK   11  A    between atoms: C_18  and  C_19
REMARK                            x       y       z     vdW  Elec       q    Type
REMARK                         _______ _______ _______ _____ _____    ______ ____
ROOT
ATOM      1  C   UNL     1      -0.509   0.110   1.415  1.00  0.00    +0.000 C 
ATOM      2  C   UNL     1      -0.997  -1.141   1.275  1.00  0.00    +0.000 C 
ENDROOT
BRANCH   2   3
ATOM      3  C   UNL     1      -2.177  -1.487   0.557  1.00  0.00    +0.000 A 
ATOM      4  C   UNL     1      -2.880  -2.687   0.601  1.00  0.00    +0.000 A 
ATOM      5  C   UNL     1      -3.981  -2.600  -0.296  1.00  0.00    +0.000 A 
ATOM      6  C   UNL     1      -5.006  -3.631  -0.569  1.00  0.00    +0.000 C 
ATOM      7  C   UNL     1      -3.887  -1.345  -0.849  1.00  0.00    +0.000 A 
ATOM      8  O   UNL     1      -2.816  -0.681  -0.357  1.00  0.00    +0.000 OA
ENDBRANCH   2   3
BRANCH   1   9
ATOM      9  C   UNL     1       0.791   0.321   2.173  1.00  0.00    +0.000 C 
BRANCH   9  10
ATOM     10  C   UNL     1       1.957   0.850   1.328  1.00  0.00    +0.000 C 
BRANCH  10  11
ATOM     11  C   UNL     1       2.366  -0.111   0.204  1.00  0.00    +0.000 C 
BRANCH  11  12
ATOM     12  C   UNL     1       3.546   0.408  -0.595  1.00  0.00    +0.000 C 
ATOM     13  C   UNL     1       3.341   0.987  -1.791  1.00  0.00    +0.000 C 
BRANCH  12  15
ATOM     14  C   UNL     1       5.284  -0.332   1.042  1.00  0.00    +0.000 C 
ATOM     15  C   UNL     1       4.906   0.260  -0.098  1.00  0.00    +0.000 C 
ENDBRANCH  12  15
ENDBRANCH  11  12
ENDBRANCH  10  11
ENDBRANCH   9  10
ENDBRANCH   1   9
BRANCH   1  16
ATOM     16  C   UNL     1      -1.175   1.376   0.925  1.00  0.00    +0.000 C 
BRANCH  16  17
ATOM     17  O   UNL     1      -0.626   1.698  -0.355  1.00  0.00    +0.000 OA
BRANCH  17  18
ATOM     18  C   UNL     1      -1.163   2.809  -0.921  1.00  0.00    +0.000 C 
ATOM     19  C   UNL     1      -0.556   3.036  -2.271  1.00  0.00    +0.000 C 
ATOM     20  O   UNL     1      -2.004   3.537  -0.411  1.00  0.00    +0.000 OA
ENDBRANCH  17  18
ENDBRANCH  16  17
ENDBRANCH   1  16
TORSDOF 9
