REMARK  Name = SANCDB_01095_minRM1.pdb
AUTHORGENERATED BY OPEN BABEL 2.3.2
REMARK  6 active torsions:
REMARK  status: ('A' for Active; 'I' for Inactive)
REMARK    1  A    between atoms: C_1  and  O_2
REMARK    2  A    between atoms: O_2  and  C_3
REMARK    3  A    between atoms: C_4  and  O_17
REMARK    4  A    between atoms: C_5  and  O_15
REMARK    5  A    between atoms: C_6  and  O_14
REMARK    6  A    between atoms: O_15  and  C_16
REMARK                            x       y       z     vdW  Elec       q    Type
REMARK                         _______ _______ _______ _____ _____    ______ ____
ROOT
ATOM      1  C   UNL     1      -0.555  -0.813  -0.207  1.00  0.00    +0.000 A 
ATOM      2  C   UNL     1       0.846  -0.972  -0.211  1.00  0.00    +0.000 A 
ATOM      3  C   UNL     1       1.685   0.143  -0.251  1.00  0.00    +0.000 A 
ATOM      4  C   UNL     1       1.090   1.412  -0.324  1.00  0.00    +0.000 A 
ATOM      5  C   UNL     1      -0.298   1.560  -0.365  1.00  0.00    +0.000 A 
ATOM      6  C   UNL     1      -1.142   0.453  -0.321  1.00  0.00    +0.000 A 
ATOM      7  C   UNL     1      -2.580   0.671  -0.414  1.00  0.00    +0.000 A 
ATOM      8  C   UNL     1      -3.061   1.915  -0.506  1.00  0.00    +0.000 A 
ATOM      9  C   UNL     1      -2.188   3.101  -0.518  1.00  0.00    +0.000 A 
ATOM     10  O   UNL     1      -2.669   4.226  -0.583  1.00  0.00    +0.000 OA
ATOM     11  O   UNL     1      -0.825   2.868  -0.455  1.00  0.00    +0.000 OA
ENDROOT
BRANCH   1  13
ATOM     12  C   UNL     1      -1.665  -2.243   1.214  1.00  0.00    +0.000 C 
ATOM     13  O   UNL     1      -1.328  -1.953  -0.149  1.00  0.00    +0.000 OA
ENDBRANCH   1  13
BRANCH   4  14
ATOM     14  O   UNL     1       1.887   2.528  -0.366  1.00  0.00    +0.000 OA
ATOM     15  H   UNL     1       2.804   2.193  -0.344  1.00  0.00    +0.000 HD
ENDBRANCH   4  14
BRANCH   3  16
ATOM     16  O   UNL     1       3.056   0.184  -0.240  1.00  0.00    +0.000 OA
ATOM     17  C   UNL     1       3.760  -1.044  -0.107  1.00  0.00    +0.000 C 
ENDBRANCH   3  16
BRANCH   2  18
ATOM     18  O   UNL     1       1.338  -2.252  -0.189  1.00  0.00    +0.000 OA
ATOM     19  H   UNL     1       0.574  -2.840  -0.346  1.00  0.00    +0.000 HD
ENDBRANCH   2  18
TORSDOF 4
