REMARK  Name = SANCDB_01080_minRM1.pdb
AUTHORGENERATED BY OPEN BABEL 2.3.2
REMARK  9 active torsions:
REMARK  status: ('A' for Active; 'I' for Inactive)
REMARK    1  A    between atoms: C_1  and  C_2
REMARK    2  A    between atoms: C_2  and  C_4
REMARK    3  A    between atoms: C_7  and  C_31
REMARK    4  A    between atoms: C_11  and  C_30
REMARK    5  A    between atoms: C_16  and  C_29
REMARK    6  A    between atoms: C_20  and  C_28
REMARK    7  A    between atoms: C_23  and  O_27
REMARK    8  A    between atoms: C_24  and  C_25
REMARK    9  A    between atoms: C_24  and  C_26
REMARK                            x       y       z     vdW  Elec       q    Type
REMARK                         _______ _______ _______ _____ _____    ______ ____
ROOT
ATOM      1  C   UNL     1       5.348   0.131  -0.847  1.00  0.00    +0.000 C 
ATOM      2  C   UNL     1       5.360  -1.388  -1.191  1.00  0.00    +0.000 C 
ATOM      3  C   UNL     1       3.900  -1.880  -1.120  1.00  0.00    +0.000 C 
ATOM      4  C   UNL     1       3.187  -0.877  -0.186  1.00  0.00    +0.000 C 
ATOM      5  C   UNL     1       3.838   0.427  -0.706  1.00  0.00    +0.000 C 
ATOM      6  C   UNL     1       3.322   1.671   0.003  1.00  0.00    +0.000 C 
ATOM      7  C   UNL     1       1.801   1.796  -0.218  1.00  0.00    +0.000 C 
ATOM      8  C   UNL     1       0.958   0.529   0.159  1.00  0.00    +0.000 C 
ATOM      9  C   UNL     1       1.648  -0.765  -0.443  1.00  0.00    +0.000 C 
ATOM     10  C   UNL     1       0.863  -2.045  -0.115  1.00  0.00    +0.000 C 
ATOM     11  C   UNL     1      -0.596  -1.971  -0.573  1.00  0.00    +0.000 C 
ATOM     12  C   UNL     1      -1.336  -0.723  -0.037  1.00  0.00    +0.000 C 
ATOM     13  C   UNL     1      -0.572   0.610  -0.427  1.00  0.00    +0.000 C 
ATOM     14  C   UNL     1      -1.340   1.830   0.157  1.00  0.00    +0.000 C 
ATOM     15  C   UNL     1      -2.849   1.831  -0.111  1.00  0.00    +0.000 C 
ATOM     16  C   UNL     1      -3.506   0.545   0.429  1.00  0.00    +0.000 C 
ATOM     17  C   UNL     1      -2.916  -0.737  -0.274  1.00  0.00    +0.000 C 
ATOM     18  C   UNL     1      -3.519  -1.988   0.440  1.00  0.00    +0.000 C 
ATOM     19  C   UNL     1      -5.042  -1.976   0.559  1.00  0.00    +0.000 C 
ATOM     20  C   UNL     1      -5.561  -0.709   1.230  1.00  0.00    +0.000 C 
ATOM     21  C   UNL     1      -5.075   0.607   0.554  1.00  0.00    +0.000 C 
ATOM     22  C   UNL     1      -5.483   1.776   1.493  1.00  0.00    +0.000 C 
ATOM     23  C   UNL     1      -5.797   0.867  -0.783  1.00  0.00    +0.000 C 
ATOM     24  C   UNL     1      -3.276  -0.844  -1.776  1.00  0.00    +0.000 C 
ATOM     25  C   UNL     1      -0.549   0.813  -1.973  1.00  0.00    +0.000 C 
ATOM     26  C   UNL     1       0.945   0.485   1.718  1.00  0.00    +0.000 C 
ATOM     27  C   UNL     1       3.558  -1.242   1.271  1.00  0.00    +0.000 C 
ENDROOT
BRANCH   1  29
ATOM     28  C   UNL     1       6.682   2.074   0.181  1.00  0.00    +0.000 C 
ATOM     29  C   UNL     1       6.276   0.620   0.262  1.00  0.00    +0.000 C 
ATOM     30  C   UNL     1       6.811  -0.142   1.233  1.00  0.00    +0.000 C 
ENDBRANCH   1  29
BRANCH  20  31
ATOM     31  O   UNL     1      -6.985  -0.773   1.297  1.00  0.00    +0.000 OA
ATOM     32  H   UNL     1      -7.325  -0.930   0.400  1.00  0.00    +0.000 HD
ENDBRANCH  20  31
TORSDOF 2
