REMARK  Name = SANCDB_00831_minRM1.pdb
AUTHORGENERATED BY OPEN BABEL 2.3.2
REMARK  5 active torsions:
REMARK  status: ('A' for Active; 'I' for Inactive)
REMARK    1  A    between atoms: C_1  and  C_2
REMARK    2  A    between atoms: C_14  and  O_21
REMARK    3  A    between atoms: C_15  and  O_19
REMARK    4  A    between atoms: C_17  and  O_18
REMARK    5  A    between atoms: O_19  and  C_20
REMARK                            x       y       z     vdW  Elec       q    Type
REMARK                         _______ _______ _______ _____ _____    ______ ____
ROOT
ATOM      1  C   UNL     1      -5.638   0.836  -0.450  1.00  0.00    +0.000 C 
ATOM      2  C   UNL     1      -4.286   0.204  -0.312  1.00  0.00    +0.000 A 
ATOM      3  C   UNL     1      -3.138   0.980  -0.403  1.00  0.00    +0.000 A 
ATOM      4  C   UNL     1      -1.894   0.356  -0.270  1.00  0.00    +0.000 A 
ATOM      5  C   UNL     1      -1.832  -1.008  -0.052  1.00  0.00    +0.000 A 
ATOM      6  C   UNL     1      -3.021  -1.711   0.027  1.00  0.00    +0.000 A 
ATOM      7  N   UNL     1      -4.240  -1.133  -0.099  1.00  0.00    +0.000 NA
ATOM      8  C   UNL     1      -0.546  -1.689   0.092  1.00  0.00    +0.000 C 
ATOM      9  O   UNL     1      -0.502  -2.900   0.285  1.00  0.00    +0.000 OA
ATOM     10  C   UNL     1       0.705  -0.909   0.003  1.00  0.00    +0.000 A 
ATOM     11  C   UNL     1       0.664   0.472  -0.217  1.00  0.00    +0.000 A 
ATOM     12  C   UNL     1      -0.654   1.153  -0.362  1.00  0.00    +0.000 C 
ATOM     13  O   UNL     1      -0.765   2.356  -0.555  1.00  0.00    +0.000 OA
ATOM     14  C   UNL     1       1.879   1.171  -0.294  1.00  0.00    +0.000 A 
ATOM     15  C   UNL     1       3.117   0.517  -0.156  1.00  0.00    +0.000 A 
ATOM     16  C   UNL     1       3.142  -0.856   0.063  1.00  0.00    +0.000 A 
ATOM     17  C   UNL     1       1.942  -1.561   0.141  1.00  0.00    +0.000 A 
ENDROOT
BRANCH  17  18
ATOM     18  O   UNL     1       2.060  -2.909   0.358  1.00  0.00    +0.000 OA
ATOM     19  H   UNL     1       1.158  -3.302   0.396  1.00  0.00    +0.000 HD
ENDBRANCH  17  18
BRANCH  15  20
ATOM     20  O   UNL     1       4.216   1.334  -0.255  1.00  0.00    +0.000 OA
ATOM     21  C   UNL     1       5.491   0.713  -0.121  1.00  0.00    +0.000 C 
ENDBRANCH  15  20
BRANCH  14  22
ATOM     22  O   UNL     1       1.907   2.525  -0.508  1.00  0.00    +0.000 OA
ATOM     23  H   UNL     1       2.848   2.786  -0.523  1.00  0.00    +0.000 HD
ENDBRANCH  14  22
TORSDOF 3
