REMARK  Name = /srv/my_project/app/compsite/backup/Dave/CORINA_stuff/newPDBs/SANC00437.pdb
AUTHORGENERATED BY OPEN BABEL 2.3.2
REMARK  2 active torsions:
REMARK  status: ('A' for Active; 'I' for Inactive)
REMARK    1  A    between atoms: C_1  and  C_2
REMARK    2  A    between atoms: C_12  and  O_14
REMARK                            x       y       z     vdW  Elec       q    Type
REMARK                         _______ _______ _______ _____ _____    ______ ____
ROOT
ATOM      1  C   UNL     1      -3.368  -0.774   0.044  1.00  0.00    +0.000 C 
ATOM      2  C   UNL     1      -1.951  -0.289  -0.053  1.00  0.00    +0.000 A 
ATOM      3  C   UNL     1      -0.887  -1.133   0.288  1.00  0.00    +0.000 A 
ATOM      4  C   UNL     1       0.435  -0.668   0.227  1.00  0.00    +0.000 A 
ATOM      5  C   UNL     1       0.701   0.644  -0.164  1.00  0.00    +0.000 A 
ATOM      6  C   UNL     1       2.093   1.128  -0.225  1.00  0.00    +0.000 C 
ATOM      7  O   UNL     1       2.346   2.279  -0.566  1.00  0.00    +0.000 OA
ATOM      8  C   UNL     1       3.175   0.194   0.134  1.00  0.00    +0.000 C 
ATOM      9  C   UNL     1       2.918  -1.061   0.508  1.00  0.00    +0.000 C 
ATOM     10  C   UNL     1       1.540  -1.582   0.584  1.00  0.00    +0.000 C 
ATOM     11  O   UNL     1       1.338  -2.738   0.933  1.00  0.00    +0.000 OA
ATOM     12  C   UNL     1      -0.363   1.492  -0.490  1.00  0.00    +0.000 A 
ATOM     13  C   UNL     1      -1.679   1.032  -0.430  1.00  0.00    +0.000 A 
ENDROOT
BRANCH  12  14
ATOM     14  O   UNL     1      -0.194   2.795  -0.876  1.00  0.00    +0.000 OA
ATOM     15  H   UNL     1       0.769   2.997  -0.880  1.00  0.00    +0.000 HD
ENDBRANCH  12  14
TORSDOF 1
