REMARK  Name = SANCDB_00921_minRM1.pdb
AUTHORGENERATED BY OPEN BABEL 2.3.2
REMARK  3 active torsions:
REMARK  status: ('A' for Active; 'I' for Inactive)
REMARK    1  A    between atoms: C_1  and  C_2
REMARK    2  A    between atoms: C_2  and  C_3
REMARK    3  A    between atoms: C_2  and  C_4
REMARK                            x       y       z     vdW  Elec       q    Type
REMARK                         _______ _______ _______ _____ _____    ______ ____
ROOT
ATOM      1  C   UNL     1      -0.445  -0.613  -0.004  1.00  0.00    +0.000 C 
ATOM      2  C   UNL     1       0.485  -0.501  -1.233  1.00  0.00    +0.000 C 
ATOM      3  C   UNL     1       1.927  -0.863  -0.876  1.00  0.00    +0.000 C 
ATOM      4  C   UNL     1       2.440  -0.004   0.255  1.00  0.00    +0.000 C 
ATOM      5  C   UNL     1       3.702   0.449   0.291  1.00  0.00    +0.000 C 
ATOM      6  C   UNL     1       1.498   0.304   1.312  1.00  0.00    +0.000 C 
ATOM      7  C   UNL     1       0.192   0.010   1.220  1.00  0.00    +0.000 C 
ENDROOT
BRANCH   1   9
ATOM      8  C   UNL     1      -2.898  -0.529   0.709  1.00  0.00    +0.000 C 
ATOM      9  C   UNL     1      -1.867  -0.071  -0.331  1.00  0.00    +0.000 C 
ATOM     10  C   UNL     1      -1.936   1.452  -0.482  1.00  0.00    +0.000 C 
ENDBRANCH   1   9
TORSDOF 1
