REMARK  Name = SANCDB_00780_minRM1.pdb
AUTHORGENERATED BY OPEN BABEL 2.3.2
REMARK  5 active torsions:
REMARK  status: ('A' for Active; 'I' for Inactive)
REMARK    1  A    between atoms: C_1  and  C_2
REMARK    2  A    between atoms: C_5  and  C_6
REMARK    3  A    between atoms: C_7  and  O_8
REMARK    4  A    between atoms: C_7  and  C_9
REMARK    5  A    between atoms: C_9  and  O_10
REMARK                            x       y       z     vdW  Elec       q    Type
REMARK                         _______ _______ _______ _____ _____    ______ ____
ROOT
ATOM      1  C   UNL     1      -1.036   4.773   0.977  1.00  0.00    +0.000 C 
ATOM      2  C   UNL     1      -1.700   3.519   0.501  1.00  0.00    +0.000 C 
ATOM      3  C   UNL     1      -1.154   2.296   0.330  1.00  0.00    +0.000 C 
ATOM      4  C   UNL     1      -1.978   1.153  -0.228  1.00  0.00    +0.000 C 
ATOM      5  C   UNL     1      -2.133  -0.066   0.729  1.00  0.00    +0.000 C 
ATOM      6  C   UNL     1      -3.065   0.312   1.892  1.00  0.00    +0.000 C 
ATOM      7  C   UNL     1      -2.621  -1.326  -0.052  1.00  0.00    +0.000 C 
ATOM      8  C   UNL     1      -1.650  -1.614  -1.222  1.00  0.00    +0.000 C 
ATOM      9  O   UNL     1      -1.980  -1.657  -2.402  1.00  0.00    +0.000 OA
ATOM     10  O   UNL     1      -0.365  -1.717  -0.773  1.00  0.00    +0.000 OA
ATOM     11  C   UNL     1       0.601  -1.553  -1.811  1.00  0.00    +0.000 C 
ATOM     12  C   UNL     1       1.965  -1.591  -1.215  1.00  0.00    +0.000 C 
ATOM     13  C   UNL     1       3.027  -2.230  -1.723  1.00  0.00    +0.000 C 
ATOM     14  C   UNL     1       4.203  -2.089  -0.827  1.00  0.00    +0.000 C 
ATOM     15  N   UNL     1       3.823  -1.063   0.165  1.00  0.00    +0.000 NA
ATOM     16  C   UNL     1       2.321  -0.971   0.111  1.00  0.00    +0.000 C 
ATOM     17  C   UNL     1       2.048   0.516   0.375  1.00  0.00    +0.000 C 
ATOM     18  O   UNL     1       0.740   0.951  -0.003  1.00  0.00    +0.000 OA
ATOM     19  C   UNL     1       0.272   2.025   0.691  1.00  0.00    +0.000 C 
ATOM     20  O   UNL     1       0.905   2.653   1.527  1.00  0.00    +0.000 OA
ATOM     21  C   UNL     1       3.142   1.196  -0.420  1.00  0.00    +0.000 C 
ATOM     22  C   UNL     1       4.337   0.278  -0.201  1.00  0.00    +0.000 C 
ENDROOT
BRANCH   7  23
ATOM     23  O   UNL     1      -3.941  -1.063  -0.554  1.00  0.00    +0.000 OA
ATOM     24  H   UNL     1      -4.188  -1.875  -1.043  1.00  0.00    +0.000 HD
ENDBRANCH   7  23
BRANCH   7  25
ATOM     25  C   UNL     1      -2.694  -2.593   0.819  1.00  0.00    +0.000 C 
BRANCH  25  26
ATOM     26  O   UNL     1      -3.239  -3.672   0.052  1.00  0.00    +0.000 OA
ATOM     27  H   UNL     1      -3.312  -4.439   0.648  1.00  0.00    +0.000 HD
ENDBRANCH  25  26
ENDBRANCH   7  25
TORSDOF 3
