REMARK  Name = /srv/my_project/app/compsite/backup/Dave/CORINA_stuff/newPDBs/SANC00262.pdb
AUTHORGENERATED BY OPEN BABEL 2.3.2
REMARK  4 active torsions:
REMARK  status: ('A' for Active; 'I' for Inactive)
REMARK    1  A    between atoms: C_1  and  O_2
REMARK    2  A    between atoms: O_2  and  C_3
REMARK    3  A    between atoms: C_3  and  C_4
REMARK    4  A    between atoms: C_7  and  C_8
REMARK                            x       y       z     vdW  Elec       q    Type
REMARK                         _______ _______ _______ _____ _____    ______ ____
ROOT
ATOM      1  C   UNL     1       2.015   0.414  -0.816  1.00  0.00    +0.000 A 
ATOM      2  C   UNL     1       1.278   1.473  -0.315  1.00  0.00    +0.000 A 
ATOM      3  C   UNL     1      -0.074   1.054  -0.156  1.00  0.00    +0.000 A 
ATOM      4  C   UNL     1      -1.274   1.670   0.306  1.00  0.00    +0.000 A 
ATOM      5  C   UNL     1      -1.335   3.096   0.784  1.00  0.00    +0.000 C 
ATOM      6  C   UNL     1      -2.474   0.910   0.322  1.00  0.00    +0.000 A 
ATOM      7  C   UNL     1      -2.472  -0.407  -0.106  1.00  0.00    +0.000 A 
ATOM      8  C   UNL     1      -3.621  -1.362  -0.165  1.00  0.00    +0.000 C 
ATOM      9  C   UNL     1      -3.011  -2.665  -0.721  1.00  0.00    +0.000 C 
ATOM     10  C   UNL     1      -1.551  -2.355  -0.939  1.00  0.00    +0.000 C 
ATOM     11  O   UNL     1      -0.696  -3.111  -1.368  1.00  0.00    +0.000 OA
ATOM     12  C   UNL     1      -1.296  -0.985  -0.551  1.00  0.00    +0.000 A 
ATOM     13  C   UNL     1      -0.111  -0.276  -0.580  1.00  0.00    +0.000 A 
ATOM     14  N   UNL     1       1.151  -0.641  -0.974  1.00  0.00    +0.000 N 
ATOM     15  H   UNL     1       1.383  -1.564  -1.325  1.00  0.00    +0.000 HD
ENDROOT
BRANCH   1  16
ATOM     16  C   UNL     1       3.456   0.309  -1.167  1.00  0.00    +0.000 C 
BRANCH  16  18
ATOM     17  C   UNL     1       4.405  -0.270   0.930  1.00  0.00    +0.000 C 
ATOM     18  O   UNL     1       4.225   0.746  -0.048  1.00  0.00    +0.000 OA
ENDBRANCH  16  18
ENDBRANCH   1  16
TORSDOF 2
