REMARK  Name = SANCDB_00901_minRM1.pdb
AUTHORGENERATED BY OPEN BABEL 2.3.2
REMARK  8 active torsions:
REMARK  status: ('A' for Active; 'I' for Inactive)
REMARK    1  A    between atoms: C_1  and  C_2
REMARK    2  A    between atoms: C_2  and  C_3
REMARK    3  A    between atoms: C_2  and  C_4
REMARK    4  A    between atoms: C_2  and  C_6
REMARK    5  A    between atoms: C_7  and  C_8
REMARK    6  A    between atoms: C_8  and  C_9
REMARK    7  A    between atoms: C_8  and  C_10
REMARK    8  A    between atoms: C_8  and  O_11
REMARK                            x       y       z     vdW  Elec       q    Type
REMARK                         _______ _______ _______ _____ _____    ______ ____
ROOT
ATOM      1  C   UNL     1       0.029  -0.654   0.143  1.00  0.00    +0.000 C 
ATOM      2  C   UNL     1      -0.737   0.343  -0.340  1.00  0.00    +0.000 C 
ENDROOT
BRANCH   1   4
ATOM      3  C   UNL     1       2.064  -1.979  -0.393  1.00  0.00    +0.000 C 
ATOM      4  C   UNL     1       1.551  -0.689   0.280  1.00  0.00    +0.000 C 
ATOM      5  C   UNL     1       1.877  -0.770   1.785  1.00  0.00    +0.000 C 
BRANCH   4   6
ATOM      6  C   UNL     1       2.227   0.484  -0.423  1.00  0.00    +0.000 C 
ATOM      7  C   UNL     1       2.962   1.464   0.124  1.00  0.00    +0.000 C 
ENDBRANCH   4   6
ENDBRANCH   1   4
BRANCH   2   8
ATOM      8  C   UNL     1      -2.246   0.346  -0.459  1.00  0.00    +0.000 C 
ATOM      9  C   UNL     1      -2.658   0.246  -1.927  1.00  0.00    +0.000 C 
ATOM     10  C   UNL     1      -2.830   1.612   0.174  1.00  0.00    +0.000 C 
BRANCH   8  11
ATOM     11  O   UNL     1      -2.802  -0.778   0.220  1.00  0.00    +0.000 OA
ATOM     12  H   UNL     1      -2.545  -0.697   1.154  1.00  0.00    +0.000 HD
ENDBRANCH   8  11
ENDBRANCH   2   8
TORSDOF 4
