REMARK  Name = /srv/my_project/app/compsite/backup/Dave/CORINA_stuff/newPDBs/SANC00210.pdb
AUTHORGENERATED BY OPEN BABEL 2.3.2
REMARK  10 active torsions:
REMARK  status: ('A' for Active; 'I' for Inactive)
REMARK    1  A    between atoms: C_1  and  C_2
REMARK    2  A    between atoms: C_2  and  C_19
REMARK    3  A    between atoms: C_3  and  C_4
REMARK    4  A    between atoms: N_5  and  O_6
REMARK    5  A    between atoms: O_6  and  C_7
REMARK    6  A    between atoms: C_7  and  C_8
REMARK    7  A    between atoms: C_20  and  C_21
REMARK    8  A    between atoms: C_21  and  C_23
REMARK    9  A    between atoms: C_23  and  C_24
REMARK   10  A    between atoms: C_23  and  C_26
REMARK                            x       y       z     vdW  Elec       q    Type
REMARK                         _______ _______ _______ _____ _____    ______ ____
ROOT
ATOM      1  C   UNL     1       1.208  -1.027   0.751  1.00  0.00    +0.000 C 
ATOM      2  N   UNL     1       1.683   0.036   0.190  1.00  0.00    +0.000 NA
ENDROOT
BRANCH   1   5
ATOM      3  C   UNL     1      -0.940  -0.755  -1.367  1.00  0.00    +0.000 C 
ATOM      4  C   UNL     1      -1.205  -1.103   0.077  1.00  0.00    +0.000 C 
ATOM      5  C   UNL     1      -0.235  -1.246   1.002  1.00  0.00    +0.000 C 
BRANCH   4   6
ATOM      6  C   UNL     1      -2.593  -1.318   0.493  1.00  0.00    +0.000 C 
ATOM      7  C   UNL     1      -3.688  -1.165  -0.273  1.00  0.00    +0.000 C 
BRANCH   7   8
ATOM      8  C   UNL     1      -5.141  -1.371   0.126  1.00  0.00    +0.000 C 
ATOM      9 CL   UNL     1      -5.278  -2.663   1.377  1.00  0.00    +0.000 Cl
BRANCH   8  10
ATOM     10  C   UNL     1      -5.899  -0.055   0.519  1.00  0.00    +0.000 C 
ATOM     11  C   UNL     1      -5.798   0.962  -0.636  1.00  0.00    +0.000 C 
ATOM     12 CL   UNL     1      -7.666  -0.450   0.706  1.00  0.00    +0.000 Cl
BRANCH  10  13
ATOM     13  C   UNL     1      -5.352   0.522   1.838  1.00  0.00    +0.000 C 
ATOM     14 BR   UNL     1      -6.198   2.192   2.405  1.00  0.00    +0.000 Br
ENDBRANCH  10  13
ENDBRANCH   8  10
ENDBRANCH   7   8
ENDBRANCH   4   6
ENDBRANCH   1   5
BRANCH   2  15
ATOM     15  O   UNL     1       3.082  -0.069   0.137  1.00  0.00    +0.000 OA
BRANCH  15  16
ATOM     16  C   UNL     1       3.603   1.113  -0.472  1.00  0.00    +0.000 C 
BRANCH  16  17
ATOM     17  C   UNL     1       5.092   0.975  -0.550  1.00  0.00    +0.000 A 
ATOM     18  C   UNL     1       5.701   0.386  -1.661  1.00  0.00    +0.000 A 
ATOM     19  F   UNL     1       4.948  -0.028  -2.690  1.00  0.00    +0.000 F 
ATOM     20  C   UNL     1       7.083   0.223  -1.720  1.00  0.00    +0.000 A 
ATOM     21  F   UNL     1       7.645  -0.339  -2.799  1.00  0.00    +0.000 F 
ATOM     22  C   UNL     1       7.877   0.644  -0.662  1.00  0.00    +0.000 A 
ATOM     23  F   UNL     1       9.207   0.489  -0.718  1.00  0.00    +0.000 F 
ATOM     24  C   UNL     1       7.290   1.225   0.452  1.00  0.00    +0.000 A 
ATOM     25  F   UNL     1       8.052   1.632   1.477  1.00  0.00    +0.000 F 
ATOM     26  C   UNL     1       5.908   1.386   0.507  1.00  0.00    +0.000 A 
ATOM     27  F   UNL     1       5.355   1.947   1.592  1.00  0.00    +0.000 F 
ENDBRANCH  16  17
ENDBRANCH  15  16
ENDBRANCH   2  15
TORSDOF 8
