REMARK  Name = /srv/my_project/app/compsite/backup/Dave/CORINA_stuff/newPDBs/SANC00168.pdb
AUTHORGENERATED BY OPEN BABEL 2.3.2
REMARK  7 active torsions:
REMARK  status: ('A' for Active; 'I' for Inactive)
REMARK    1  A    between atoms: C_5  and  C_6
REMARK    2  A    between atoms: C_7  and  C_9
REMARK    3  A    between atoms: C_17  and  O_19
REMARK    4  A    between atoms: C_23  and  O_25
REMARK    5  A    between atoms: O_25  and  C_26
REMARK    6  A    between atoms: C_26  and  C_27
REMARK    7  A    between atoms: C_31  and  C_32
REMARK                            x       y       z     vdW  Elec       q    Type
REMARK                         _______ _______ _______ _____ _____    ______ ____
ROOT
ATOM      1  C   UNL     1      -0.202   0.395   0.457  1.00  0.00    +0.000 C 
ATOM      2  C   UNL     1      -1.143   1.615   0.246  1.00  0.00    +0.000 C 
ATOM      3  C   UNL     1      -2.613   1.351   0.610  1.00  0.00    +0.000 C 
ATOM      4  C   UNL     1      -3.151   0.096  -0.091  1.00  0.00    +0.000 C 
ATOM      5  C   UNL     1      -3.217   0.329  -1.622  1.00  0.00    +0.000 C 
ATOM      6  C   UNL     1      -4.516  -0.422   0.447  1.00  0.00    +0.000 C 
ATOM      7  C   UNL     1      -4.507  -1.917   0.030  1.00  0.00    +0.000 C 
ATOM      8  C   UNL     1      -3.027  -2.316  -0.126  1.00  0.00    +0.000 C 
ATOM      9  C   UNL     1      -2.252  -1.084   0.330  1.00  0.00    +0.000 C 
ATOM     10  C   UNL     1      -0.793  -0.932  -0.124  1.00  0.00    +0.000 C 
ATOM     11  C   UNL     1       0.082  -2.139   0.274  1.00  0.00    +0.000 C 
ATOM     12  C   UNL     1       1.553  -1.856   0.262  1.00  0.00    +0.000 C 
ATOM     13  C   UNL     1       2.109  -0.636   0.138  1.00  0.00    +0.000 C 
ATOM     14  C   UNL     1       3.604  -0.492   0.345  1.00  0.00    +0.000 C 
ATOM     15  C   UNL     1       4.199   0.842  -0.114  1.00  0.00    +0.000 C 
ATOM     16  C   UNL     1       3.409   2.046   0.413  1.00  0.00    +0.000 C 
ATOM     17  C   UNL     1       1.942   1.763   0.763  1.00  0.00    +0.000 C 
ATOM     18  C   UNL     1       1.275   0.633  -0.062  1.00  0.00    +0.000 C 
ATOM     19  C   UNL     1       1.272   1.015  -1.563  1.00  0.00    +0.000 C 
ENDROOT
BRANCH   6  20
ATOM     20  C   UNL     1      -5.719   0.407   0.075  1.00  0.00    +0.000 C 
ATOM     21  C   UNL     1      -6.854  -0.017  -0.494  1.00  0.00    +0.000 C 
ENDBRANCH   6  20
BRANCH  11  22
ATOM     22  O   UNL     1      -0.237  -2.564   1.597  1.00  0.00    +0.000 OA
ATOM     23  H   UNL     1       0.374  -3.281   1.831  1.00  0.00    +0.000 HD
ENDBRANCH  11  22
BRANCH  15  24
ATOM     24  O   UNL     1       5.554   0.980   0.371  1.00  0.00    +0.000 OA
BRANCH  24  25
ATOM     25  C   UNL     1       6.517   0.324  -0.332  1.00  0.00    +0.000 C 
ATOM     26  C   UNL     1       7.858   0.568   0.289  1.00  0.00    +0.000 C 
ATOM     27  O   UNL     1       6.331  -0.367  -1.323  1.00  0.00    +0.000 OA
ENDBRANCH  24  25
ENDBRANCH  15  24
TORSDOF 4
