REMARK  Name = SANCDB_00862_minRM1.pdb
AUTHORGENERATED BY OPEN BABEL 2.3.2
REMARK  13 active torsions:
REMARK  status: ('A' for Active; 'I' for Inactive)
REMARK    1  A    between atoms: C_3  and  O_25
REMARK    2  A    between atoms: C_4  and  C_8
REMARK    3  A    between atoms: C_5  and  O_7
REMARK    4  A    between atoms: C_8  and  C_10
REMARK    5  A    between atoms: C_10  and  C_11
REMARK    6  A    between atoms: C_11  and  C_12
REMARK    7  A    between atoms: C_12  and  C_13
REMARK    8  A    between atoms: C_13  and  C_14
REMARK    9  A    between atoms: C_14  and  C_15
REMARK   10  A    between atoms: C_15  and  C_16
REMARK   11  A    between atoms: C_16  and  C_17
REMARK   12  A    between atoms: C_17  and  C_18
REMARK   13  A    between atoms: C_21  and  O_24
REMARK                            x       y       z     vdW  Elec       q    Type
REMARK                         _______ _______ _______ _____ _____    ______ ____
ROOT
ATOM      1  C   UNL     1      -2.736   1.292   0.285  1.00  0.00    +0.000 C 
ENDROOT
BRANCH   1   2
ATOM      2  C   UNL     1      -3.296   0.184   1.174  1.00  0.00    +0.000 C 
BRANCH   2   3
ATOM      3  C   UNL     1      -4.810   0.229   1.250  1.00  0.00    +0.000 C 
ATOM      4  O   UNL     1      -5.367   0.537   2.309  1.00  0.00    +0.000 OA
BRANCH   3   8
ATOM      5  C   UNL     1      -7.402  -0.413  -2.142  1.00  0.00    +0.000 A 
ATOM      6  C   UNL     1      -6.117  -0.952  -2.159  1.00  0.00    +0.000 A 
ATOM      7  C   UNL     1      -5.260  -0.769  -1.066  1.00  0.00    +0.000 A 
ATOM      8  C   UNL     1      -5.673  -0.035   0.056  1.00  0.00    +0.000 A 
ATOM      9  C   UNL     1      -6.985   0.479   0.059  1.00  0.00    +0.000 A 
ATOM     10  C   UNL     1      -7.837   0.301  -1.030  1.00  0.00    +0.000 A 
BRANCH   9  11
ATOM     11  O   UNL     1      -7.516   1.184   1.110  1.00  0.00    +0.000 OA
ATOM     12  H   UNL     1      -6.889   1.112   1.866  1.00  0.00    +0.000 HD
ENDBRANCH   9  11
BRANCH   7  13
ATOM     13  O   UNL     1      -4.021  -1.345  -1.120  1.00  0.00    +0.000 OA
ATOM     14  H   UNL     1      -3.929  -1.844  -1.949  1.00  0.00    +0.000 HD
ENDBRANCH   7  13
ENDBRANCH   3   8
ENDBRANCH   2   3
ENDBRANCH   1   2
BRANCH   1  15
ATOM     15  C   UNL     1      -1.207   1.381   0.324  1.00  0.00    +0.000 C 
BRANCH  15  16
ATOM     16  C   UNL     1      -0.521   0.149  -0.271  1.00  0.00    +0.000 C 
BRANCH  16  17
ATOM     17  C   UNL     1       0.992   0.321  -0.448  1.00  0.00    +0.000 C 
BRANCH  17  18
ATOM     18  C   UNL     1       1.746   0.448   0.878  1.00  0.00    +0.000 C 
BRANCH  18  19
ATOM     19  C   UNL     1       3.259   0.615   0.701  1.00  0.00    +0.000 C 
BRANCH  19  20
ATOM     20  C   UNL     1       3.947  -0.632   0.140  1.00  0.00    +0.000 C 
BRANCH  20  21
ATOM     21  C   UNL     1       5.447  -0.467   0.098  1.00  0.00    +0.000 A 
ATOM     22  C   UNL     1       6.239  -0.878   1.179  1.00  0.00    +0.000 A 
ATOM     23  C   UNL     1       7.626  -0.710   1.147  1.00  0.00    +0.000 A 
ATOM     24  C   UNL     1       8.218  -0.126   0.033  1.00  0.00    +0.000 A 
ATOM     25  C   UNL     1       7.449   0.293  -1.045  1.00  0.00    +0.000 A 
ATOM     26  C   UNL     1       6.064   0.126  -1.013  1.00  0.00    +0.000 A 
BRANCH  24  27
ATOM     27  O   UNL     1       9.568   0.058  -0.040  1.00  0.00    +0.000 OA
ATOM     28  H   UNL     1       9.968  -0.278   0.778  1.00  0.00    +0.000 HD
ENDBRANCH  24  27
ENDBRANCH  20  21
ENDBRANCH  19  20
ENDBRANCH  18  19
ENDBRANCH  17  18
ENDBRANCH  16  17
ENDBRANCH  15  16
ENDBRANCH   1  15
TORSDOF 13
