REMARK  Name = /srv/my_project/app/compsite/backup/Dave/CORINA_stuff/newPDBs/SANC00281.pdb
AUTHORGENERATED BY OPEN BABEL 2.3.2
REMARK  15 active torsions:
REMARK  status: ('A' for Active; 'I' for Inactive)
REMARK    1  A    between atoms: C_1  and  C_2
REMARK    2  A    between atoms: C_5  and  O_32
REMARK    3  A    between atoms: C_8  and  C_9
REMARK    4  A    between atoms: C_8  and  C_10
REMARK    5  A    between atoms: C_13  and  O_31
REMARK    6  A    between atoms: C_17  and  C_30
REMARK    7  A    between atoms: C_20  and  O_29
REMARK    8  A    between atoms: C_22  and  C_24
REMARK    9  A    between atoms: C_24  and  O_25
REMARK   10  A    between atoms: O_25  and  C_26
REMARK   11  A    between atoms: C_26  and  C_28
REMARK   12  A    between atoms: O_32  and  C_33
REMARK   13  A    between atoms: C_33  and  C_35
REMARK   14  A    between atoms: C_35  and  C_36
REMARK   15  A    between atoms: C_35  and  C_37
REMARK                            x       y       z     vdW  Elec       q    Type
REMARK                         _______ _______ _______ _____ _____    ______ ____
ROOT
ATOM      1  C   UNL     1       1.402  -2.816   0.639  1.00  0.00    +0.000 C 
ATOM      2  C   UNL     1       0.491  -1.970  -0.266  1.00  0.00    +0.000 C 
ATOM      3  C   UNL     1       1.372  -1.227  -1.310  1.00  0.00    +0.000 C 
ATOM      4  C   UNL     1       1.857   0.116  -0.810  1.00  0.00    +0.000 C 
ATOM      5  C   UNL     1       0.771   0.996  -0.228  1.00  0.00    +0.000 C 
ATOM      6  C   UNL     1       1.525   1.467  -1.461  1.00  0.00    +0.000 C 
ATOM      7  C   UNL     1       2.479   2.625  -1.254  1.00  0.00    +0.000 C 
ATOM      8  C   UNL     1       0.863   1.524  -2.816  1.00  0.00    +0.000 C 
ATOM      9  C   UNL     1      -0.615   0.372  -0.218  1.00  0.00    +0.000 C 
ATOM     10  C   UNL     1      -0.503  -1.020   0.518  1.00  0.00    +0.000 C 
ATOM     11  C   UNL     1      -1.919  -1.621   0.772  1.00  0.00    +0.000 C 
ATOM     12  C   UNL     1      -2.036  -3.088   1.123  1.00  0.00    +0.000 C 
ATOM     13  C   UNL     1      -3.097  -3.699   0.582  1.00  0.00    +0.000 C 
ATOM     14  C   UNL     1      -3.762  -2.688  -0.265  1.00  0.00    +0.000 C 
ATOM     15  O   UNL     1      -4.820  -2.882  -0.847  1.00  0.00    +0.000 OA
ATOM     16  C   UNL     1      -2.913  -1.433  -0.394  1.00  0.00    +0.000 C 
ATOM     17  C   UNL     1      -3.735  -0.140  -0.264  1.00  0.00    +0.000 C 
ATOM     18  C   UNL     1      -3.030   1.126   0.231  1.00  0.00    +0.000 C 
ATOM     19  C   UNL     1      -1.690   1.307   0.298  1.00  0.00    +0.000 C 
ATOM     20  C   UNL     1      -3.603  -5.078   0.741  1.00  0.00    +0.000 C 
ENDROOT
BRANCH  16  21
ATOM     21  O   UNL     1      -2.306  -1.540  -1.687  1.00  0.00    +0.000 OA
ATOM     22  H   UNL     1      -3.032  -1.581  -2.339  1.00  0.00    +0.000 HD
ENDBRANCH  16  21
BRANCH  10  23
ATOM     23  O   UNL     1       0.050  -0.749   1.835  1.00  0.00    +0.000 OA
ATOM     24  H   UNL     1       0.011  -1.564   2.361  1.00  0.00    +0.000 HD
ENDBRANCH  10  23
BRANCH  18  25
ATOM     25  C   UNL     1      -4.021   2.193   0.681  1.00  0.00    +0.000 C 
BRANCH  25  26
ATOM     26  O   UNL     1      -3.356   3.391   1.094  1.00  0.00    +0.000 OA
BRANCH  26  27
ATOM     27  C   UNL     1      -4.199   4.368   1.518  1.00  0.00    +0.000 C 
ATOM     28  O   UNL     1      -5.418   4.284   1.566  1.00  0.00    +0.000 OA
ATOM     29  C   UNL     1      -3.417   5.579   1.924  1.00  0.00    +0.000 C 
ENDBRANCH  26  27
ENDBRANCH  25  26
ENDBRANCH  18  25
BRANCH   4  30
ATOM     30  O   UNL     1       3.055   0.043  -0.004  1.00  0.00    +0.000 OA
BRANCH  30  31
ATOM     31  C   UNL     1       4.245  -0.161  -0.645  1.00  0.00    +0.000 C 
ATOM     32  O   UNL     1       4.385  -0.288  -1.855  1.00  0.00    +0.000 OA
BRANCH  31  33
ATOM     33  C   UNL     1       5.369  -0.204   0.373  1.00  0.00    +0.000 C 
ATOM     34  C   UNL     1       5.673   1.205   0.869  1.00  0.00    +0.000 C 
ATOM     35  C   UNL     1       6.616  -0.852  -0.225  1.00  0.00    +0.000 C 
ENDBRANCH  31  33
ENDBRANCH  30  31
ENDBRANCH   4  30
TORSDOF 8
