REMARK  Name = /srv/my_project/app/compsite/backup/Dave/CORINA_stuff/newPDBs/SANC00473.pdb
AUTHORGENERATED BY OPEN BABEL 2.3.2
REMARK  6 active torsions:
REMARK  status: ('A' for Active; 'I' for Inactive)
REMARK    1  A    between atoms: C_1  and  O_2
REMARK    2  A    between atoms: O_2  and  C_3
REMARK    3  A    between atoms: C_4  and  O_5
REMARK    4  A    between atoms: C_11  and  O_12
REMARK    5  A    between atoms: C_14  and  C_15
REMARK    6  A    between atoms: C_20  and  O_21
REMARK                            x       y       z     vdW  Elec       q    Type
REMARK                         _______ _______ _______ _____ _____    ______ ____
ROOT
ATOM      1  C   UNL     1       3.187   0.167  -0.603  1.00  0.00    +0.000 A 
ATOM      2  C   UNL     1       3.048   1.547  -0.381  1.00  0.00    +0.000 A 
ATOM      3  C   UNL     1       1.808   2.110  -0.084  1.00  0.00    +0.000 A 
ATOM      4  C   UNL     1       0.679   1.293  -0.015  1.00  0.00    +0.000 A 
ATOM      5  O   UNL     1      -0.499   1.926   0.284  1.00  0.00    +0.000 OA
ATOM      6  C   UNL     1      -1.648   1.177   0.358  1.00  0.00    +0.000 A 
ATOM      7  C   UNL     1      -2.804   1.898   0.672  1.00  0.00    +0.000 A 
ATOM      8  C   UNL     1      -4.016   1.232   0.769  1.00  0.00    +0.000 A 
ATOM      9  C   UNL     1      -4.092  -0.140   0.559  1.00  0.00    +0.000 A 
ATOM     10  C   UNL     1      -2.941  -0.882   0.242  1.00  0.00    +0.000 A 
ATOM     11  C   UNL     1      -3.086  -2.364   0.025  1.00  0.00    +0.000 C 
ATOM     12  C   UNL     1      -1.707  -0.205   0.143  1.00  0.00    +0.000 A 
ATOM     13  C   UNL     1      -0.434  -0.887  -0.184  1.00  0.00    +0.000 A 
ATOM     14  O   UNL     1      -0.357  -2.092  -0.401  1.00  0.00    +0.000 OA
ATOM     15  C   UNL     1       0.792  -0.074  -0.251  1.00  0.00    +0.000 A 
ATOM     16  C   UNL     1       2.043  -0.644  -0.553  1.00  0.00    +0.000 A 
ENDROOT
BRANCH   1  18
ATOM     17  C   UNL     1       4.832  -1.517  -0.367  1.00  0.00    +0.000 C 
ATOM     18  O   UNL     1       4.452  -0.261  -0.915  1.00  0.00    +0.000 OA
ENDBRANCH   1  18
BRANCH   2  19
ATOM     19  O   UNL     1       4.157   2.349  -0.445  1.00  0.00    +0.000 OA
ATOM     20  H   UNL     1       3.900   3.277  -0.332  1.00  0.00    +0.000 HD
ENDBRANCH   2  19
BRANCH   8  21
ATOM     21  O   UNL     1      -5.170   1.891   1.073  1.00  0.00    +0.000 OA
ATOM     22  H   UNL     1      -4.978   2.836   1.192  1.00  0.00    +0.000 HD
ENDBRANCH   8  21
BRANCH  16  23
ATOM     23  O   UNL     1       2.157  -1.985  -0.827  1.00  0.00    +0.000 OA
ATOM     24  H   UNL     1       1.263  -2.393  -0.765  1.00  0.00    +0.000 HD
ENDBRANCH  16  23
TORSDOF 4
