REMARK  Name = SANCDB_00954_minRM1.pdb
AUTHORGENERATED BY OPEN BABEL 2.3.2
REMARK  6 active torsions:
REMARK  status: ('A' for Active; 'I' for Inactive)
REMARK    1  A    between atoms: C_3  and  O_22
REMARK    2  A    between atoms: C_4  and  O_21
REMARK    3  A    between atoms: C_6  and  C_7
REMARK    4  A    between atoms: C_8  and  O_20
REMARK    5  A    between atoms: C_12  and  O_19
REMARK    6  A    between atoms: C_14  and  O_18
REMARK                            x       y       z     vdW  Elec       q    Type
REMARK                         _______ _______ _______ _____ _____    ______ ____
ROOT
ATOM      1  C   UNL     1       0.278   0.446  -0.359  1.00  0.00    +0.000 C 
ATOM      2  C   UNL     1      -0.200   1.542   0.599  1.00  0.00    +0.000 C 
ATOM      3  C   UNL     1      -1.707   1.669   0.445  1.00  0.00    +0.000 C 
ATOM      4  O   UNL     1      -2.238   2.776   0.498  1.00  0.00    +0.000 OA
ATOM      5  C   UNL     1      -2.456   0.404   0.256  1.00  0.00    +0.000 A 
ATOM      6  C   UNL     1      -3.854   0.325   0.306  1.00  0.00    +0.000 A 
ATOM      7  C   UNL     1      -4.497  -0.906   0.156  1.00  0.00    +0.000 A 
ATOM      8  C   UNL     1      -3.740  -2.057  -0.032  1.00  0.00    +0.000 A 
ATOM      9  C   UNL     1      -2.353  -1.999  -0.082  1.00  0.00    +0.000 A 
ATOM     10  C   UNL     1      -1.713  -0.764   0.047  1.00  0.00    +0.000 A 
ATOM     11  O   UNL     1      -0.347  -0.806  -0.015  1.00  0.00    +0.000 OA
ENDROOT
BRANCH   1  17
ATOM     12  C   UNL     1       2.252  -0.797  -1.319  1.00  0.00    +0.000 A 
ATOM     13  C   UNL     1       3.608  -1.121  -1.398  1.00  0.00    +0.000 A 
ATOM     14  C   UNL     1       4.501  -0.493  -0.548  1.00  0.00    +0.000 A 
ATOM     15  C   UNL     1       4.058   0.450   0.373  1.00  0.00    +0.000 A 
ATOM     16  C   UNL     1       2.706   0.774   0.464  1.00  0.00    +0.000 A 
ATOM     17  C   UNL     1       1.775   0.153  -0.386  1.00  0.00    +0.000 A 
BRANCH  15  18
ATOM     18  O   UNL     1       4.996   1.042   1.175  1.00  0.00    +0.000 OA
ATOM     19  H   UNL     1       4.550   1.728   1.702  1.00  0.00    +0.000 HD
ENDBRANCH  15  18
BRANCH  14  20
ATOM     20  O   UNL     1       5.828  -0.804  -0.623  1.00  0.00    +0.000 OA
ATOM     21  H   UNL     1       6.247  -0.240   0.058  1.00  0.00    +0.000 HD
ENDBRANCH  14  20
ENDBRANCH   1  17
BRANCH   8  22
ATOM     22  O   UNL     1      -4.409  -3.238  -0.162  1.00  0.00    +0.000 OA
ATOM     23  H   UNL     1      -3.766  -3.958  -0.280  1.00  0.00    +0.000 HD
ENDBRANCH   8  22
BRANCH   6  24
ATOM     24  O   UNL     1      -4.611   1.440   0.519  1.00  0.00    +0.000 OA
ATOM     25  H   UNL     1      -5.556   1.216   0.491  1.00  0.00    +0.000 HD
ENDBRANCH   6  24
BRANCH   2  26
ATOM     26  O   UNL     1       0.385   2.816   0.301  1.00  0.00    +0.000 OA
ATOM     27  H   UNL     1      -0.307   3.481   0.505  1.00  0.00    +0.000 HD
ENDBRANCH   2  26
TORSDOF 6
