REMARK  Name = SANCDB_00776_minRM1.pdb
AUTHORGENERATED BY OPEN BABEL 2.3.2
REMARK  2 active torsions:
REMARK  status: ('A' for Active; 'I' for Inactive)
REMARK    1  A    between atoms: C_2  and  C_3
REMARK    2  A    between atoms: C_6  and  O_7
REMARK                            x       y       z     vdW  Elec       q    Type
REMARK                         _______ _______ _______ _____ _____    ______ ____
ROOT
ATOM      1  C   UNL     1      -1.126  -0.031   0.117  1.00  0.00    +0.000 A 
ATOM      2  C   UNL     1      -0.298  -1.095   0.491  1.00  0.00    +0.000 A 
ATOM      3  C   UNL     1       1.084  -0.993   0.320  1.00  0.00    +0.000 A 
ATOM      4  C   UNL     1       1.621   0.172  -0.223  1.00  0.00    +0.000 A 
ATOM      5  C   UNL     1       0.801   1.233  -0.597  1.00  0.00    +0.000 A 
ATOM      6  C   UNL     1      -0.581   1.135  -0.427  1.00  0.00    +0.000 A 
ENDROOT
BRANCH   1   8
ATOM      7  O   UNL     1      -3.120  -1.129   0.767  1.00  0.00    +0.000 OA
ATOM      8  C   UNL     1      -2.589  -0.132   0.295  1.00  0.00    +0.000 C 
ENDBRANCH   1   8
BRANCH   4   9
ATOM      9  O   UNL     1       2.964   0.315  -0.408  1.00  0.00    +0.000 OA
ATOM     10  H   UNL     1       3.409  -0.494  -0.106  1.00  0.00    +0.000 HD
ENDBRANCH   4   9
TORSDOF 2
