REMARK  Name = SANCDB_01062_minRM1.pdb
AUTHORGENERATED BY OPEN BABEL 2.3.2
REMARK  3 active torsions:
REMARK  status: ('A' for Active; 'I' for Inactive)
REMARK    1  A    between atoms: C_1  and  C_2
REMARK    2  A    between atoms: C_6  and  C_20
REMARK    3  A    between atoms: C_15  and  C_19
REMARK                            x       y       z     vdW  Elec       q    Type
REMARK                         _______ _______ _______ _____ _____    ______ ____
ROOT
ATOM      1  C   UNL     1      -0.955   3.201  -1.429  1.00  0.00    +0.000 C 
ATOM      2  C   UNL     1      -0.866   1.696  -1.152  1.00  0.00    +0.000 C 
ATOM      3  C   UNL     1      -2.281   1.140  -0.944  1.00  0.00    +0.000 C 
ATOM      4  C   UNL     1      -2.281  -0.353  -0.638  1.00  0.00    +0.000 C 
ATOM      5  C   UNL     1      -1.421  -0.665   0.593  1.00  0.00    +0.000 C 
ATOM      6  C   UNL     1      -1.369  -2.160   0.958  1.00  0.00    +0.000 C 
ATOM      7  C   UNL     1      -0.532  -2.970  -0.015  1.00  0.00    +0.000 C 
ATOM      8  O   UNL     1      -0.853  -4.089  -0.403  1.00  0.00    +0.000 OA
ATOM      9  O   UNL     1       0.666  -2.442  -0.344  1.00  0.00    +0.000 OA
ATOM     10  C   UNL     1       0.790  -1.028  -0.571  1.00  0.00    +0.000 C 
ATOM     11  C   UNL     1       0.017  -0.138   0.438  1.00  0.00    +0.000 C 
ATOM     12  C   UNL     1       0.050   1.370   0.060  1.00  0.00    +0.000 C 
ATOM     13  C   UNL     1       1.484   1.908  -0.170  1.00  0.00    +0.000 C 
ATOM     14  C   UNL     1       2.592   1.296   0.701  1.00  0.00    +0.000 C 
ATOM     15  C   UNL     1       2.652  -0.245   0.636  1.00  0.00    +0.000 C 
ATOM     16  O   UNL     1       2.183  -0.693  -0.637  1.00  0.00    +0.000 OA
ATOM     17  O   UNL     1       1.897  -0.851   1.694  1.00  0.00    +0.000 OA
ATOM     18  O   UNL     1       0.597  -0.191   1.766  1.00  0.00    +0.000 OA
ATOM     19  C   UNL     1       4.089  -0.732   0.797  1.00  0.00    +0.000 C 
ATOM     20  C   UNL     1      -2.762  -2.774   1.124  1.00  0.00    +0.000 C 
ENDROOT
TORSDOF 0
