REMARK  Name = SANCDB_00914_minRM1.pdb
AUTHORGENERATED BY OPEN BABEL 2.3.2
REMARK  6 active torsions:
REMARK  status: ('A' for Active; 'I' for Inactive)
REMARK    1  A    between atoms: C_1  and  C_2
REMARK    2  A    between atoms: C_7  and  C_16
REMARK    3  A    between atoms: C_9  and  C_12
REMARK    4  A    between atoms: C_12  and  C_13
REMARK    5  A    between atoms: C_12  and  C_14
REMARK    6  A    between atoms: C_12  and  O_15
REMARK                            x       y       z     vdW  Elec       q    Type
REMARK                         _______ _______ _______ _____ _____    ______ ____
ROOT
ATOM      1  C   UNL     1      -2.357   2.342   0.098  1.00  0.00    +0.000 C 
ATOM      2  C   UNL     1      -2.194   0.893  -0.378  1.00  0.00    +0.000 C 
ATOM      3  C   UNL     1      -3.545   0.168  -0.279  1.00  0.00    +0.000 C 
ATOM      4  C   UNL     1      -3.474  -1.218  -0.912  1.00  0.00    +0.000 C 
ATOM      5  C   UNL     1      -2.218  -1.959  -0.575  1.00  0.00    +0.000 C 
ATOM      6  C   UNL     1      -1.135  -1.403  -0.001  1.00  0.00    +0.000 C 
ATOM      7  C   UNL     1      -1.046   0.087   0.345  1.00  0.00    +0.000 C 
ATOM      8  C   UNL     1       0.324   0.648  -0.144  1.00  0.00    +0.000 C 
ATOM      9  C   UNL     1       1.566  -0.190   0.253  1.00  0.00    +0.000 C 
ATOM     10  C   UNL     1       1.355  -1.641  -0.227  1.00  0.00    +0.000 C 
ATOM     11  C   UNL     1       0.070  -2.247   0.330  1.00  0.00    +0.000 C 
ATOM     12  C   UNL     1      -1.147   0.237   1.882  1.00  0.00    +0.000 C 
ENDROOT
BRANCH   9  13
ATOM     13  C   UNL     1       2.900   0.438  -0.273  1.00  0.00    +0.000 C 
ATOM     14  C   UNL     1       4.125  -0.425   0.064  1.00  0.00    +0.000 C 
ATOM     15  C   UNL     1       3.129   1.841   0.308  1.00  0.00    +0.000 C 
BRANCH  13  16
ATOM     16  O   UNL     1       2.851   0.592  -1.694  1.00  0.00    +0.000 OA
ATOM     17  H   UNL     1       2.812  -0.291  -2.097  1.00  0.00    +0.000 HD
ENDBRANCH  13  16
ENDBRANCH   9  13
TORSDOF 2
