REMARK  Name = SANCDB_00909_minRM1.pdb
AUTHORGENERATED BY OPEN BABEL 2.3.2
REMARK  3 active torsions:
REMARK  status: ('A' for Active; 'I' for Inactive)
REMARK    1  A    between atoms: C_1  and  C_2
REMARK    2  A    between atoms: C_8  and  C_9
REMARK    3  A    between atoms: C_8  and  C_10
REMARK                            x       y       z     vdW  Elec       q    Type
REMARK                         _______ _______ _______ _____ _____    ______ ____
ROOT
ATOM      1  C   UNL     1       2.224  -1.045   1.814  1.00  0.00    +0.000 C 
ATOM      2  C   UNL     1       2.128  -1.147   0.320  1.00  0.00    +0.000 C 
ATOM      3  C   UNL     1       1.130  -2.116  -0.247  1.00  0.00    +0.000 C 
ATOM      4  C   UNL     1      -0.318  -1.769   0.111  1.00  0.00    +0.000 C 
ATOM      5  C   UNL     1      -0.839  -0.477  -0.542  1.00  0.00    +0.000 C 
ATOM      6  C   UNL     1      -0.592   0.913   0.141  1.00  0.00    +0.000 C 
ATOM      7  C   UNL     1      -2.072   1.279  -0.146  1.00  0.00    +0.000 C 
ATOM      8  C   UNL     1      -2.387  -0.230  -0.325  1.00  0.00    +0.000 C 
ATOM      9  C   UNL     1      -3.218  -0.541  -1.570  1.00  0.00    +0.000 C 
ATOM     10  C   UNL     1      -3.043  -0.821   0.927  1.00  0.00    +0.000 C 
ATOM     11  C   UNL     1       0.463   1.812  -0.446  1.00  0.00    +0.000 C 
ATOM     12  C   UNL     1       0.324   2.360  -1.665  1.00  0.00    +0.000 C 
ATOM     13  C   UNL     1       1.716   2.057   0.376  1.00  0.00    +0.000 C 
ATOM     14  C   UNL     1       2.954   1.295  -0.131  1.00  0.00    +0.000 C 
ATOM     15  C   UNL     1       2.600  -0.063  -0.627  1.00  0.00    +0.000 C 
ATOM     16  O   UNL     1       3.438  -1.165  -0.284  1.00  0.00    +0.000 OA
ENDROOT
TORSDOF 0
