REMARK  Name = /srv/my_project/app/compsite/backup/Dave/CORINA_stuff/newPDBs/SANC00150.pdb
AUTHORGENERATED BY OPEN BABEL 2.3.2
REMARK  12 active torsions:
REMARK  status: ('A' for Active; 'I' for Inactive)
REMARK    1  A    between atoms: C_9  and  O_11
REMARK    2  A    between atoms: O_11  and  C_12
REMARK    3  A    between atoms: C_12  and  C_13
REMARK    4  A    between atoms: C_17  and  C_18
REMARK    5  A    between atoms: C_18  and  C_19
REMARK    6  A    between atoms: C_18  and  O_24
REMARK    7  A    between atoms: C_19  and  C_20
REMARK    8  A    between atoms: C_21  and  C_22
REMARK    9  A    between atoms: C_21  and  C_23
REMARK   10  A    between atoms: O_24  and  C_25
REMARK   11  A    between atoms: C_25  and  C_26
REMARK   12  A    between atoms: C_32  and  C_33
REMARK                            x       y       z     vdW  Elec       q    Type
REMARK                         _______ _______ _______ _____ _____    ______ ____
ROOT
ATOM      1  C   UNL     1      -2.412  -2.975  -0.866  1.00  0.00    +0.000 C 
ATOM      2  C   UNL     1      -3.792  -2.504  -1.147  1.00  0.00    +0.000 C 
ATOM      3  C   UNL     1      -3.892  -0.965  -1.230  1.00  0.00    +0.000 C 
ATOM      4  C   UNL     1      -2.594  -0.215  -1.523  1.00  0.00    +0.000 C 
ATOM      5  C   UNL     1      -2.200   0.012  -2.788  1.00  0.00    +0.000 C 
ATOM      6  C   UNL     1      -1.819   0.272  -0.292  1.00  0.00    +0.000 C 
ATOM      7  C   UNL     1      -2.117   1.757   0.024  1.00  0.00    +0.000 C 
ATOM      8  O   UNL     1      -1.678   2.074   1.356  1.00  0.00    +0.000 OA
ATOM      9  C   UNL     1      -0.441   1.598   1.694  1.00  0.00    +0.000 C 
ATOM     10  C   UNL     1       0.300   0.701   1.014  1.00  0.00    +0.000 C 
ATOM     11  C   UNL     1      -0.272   0.040  -0.249  1.00  0.00    +0.000 C 
ATOM     12  C   UNL     1       0.151  -1.441  -0.478  1.00  0.00    +0.000 C 
ATOM     13  C   UNL     1      -0.299  -2.513   0.536  1.00  0.00    +0.000 C 
ATOM     14  C   UNL     1      -1.780  -2.803   0.515  1.00  0.00    +0.000 C 
ATOM     15  C   UNL     1      -2.533  -2.544   1.792  1.00  0.00    +0.000 C 
ATOM     16  O   UNL     1      -2.189  -4.088  -0.017  1.00  0.00    +0.000 OA
ENDROOT
BRANCH   7  17
ATOM     17  O   UNL     1      -1.479   2.608  -0.943  1.00  0.00    +0.000 OA
BRANCH  17  18
ATOM     18  C   UNL     1      -2.070   3.815  -1.122  1.00  0.00    +0.000 C 
ATOM     19  C   UNL     1      -1.280   4.622  -2.107  1.00  0.00    +0.000 C 
ATOM     20  O   UNL     1      -3.096   4.204  -0.585  1.00  0.00    +0.000 OA
ENDBRANCH  17  18
ENDBRANCH   7  17
BRANCH  10  21
ATOM     21  C   UNL     1       1.724   0.369   1.468  1.00  0.00    +0.000 C 
BRANCH  21  22
ATOM     22  C   UNL     1       2.783   1.301   0.836  1.00  0.00    +0.000 C 
BRANCH  22  23
ATOM     23  C   UNL     1       2.910   1.200  -0.661  1.00  0.00    +0.000 C 
ATOM     24  C   UNL     1       3.710   0.366  -1.353  1.00  0.00    +0.000 C 
ATOM     25  C   UNL     1       3.740   0.398  -2.858  1.00  0.00    +0.000 C 
ATOM     26  C   UNL     1       4.618  -0.661  -0.734  1.00  0.00    +0.000 C 
ENDBRANCH  22  23
ENDBRANCH  21  22
BRANCH  21  27
ATOM     27  O   UNL     1       1.784   0.526   2.909  1.00  0.00    +0.000 OA
BRANCH  27  28
ATOM     28  C   UNL     1       2.720  -0.218   3.557  1.00  0.00    +0.000 C 
ATOM     29  C   UNL     1       2.645   0.040   5.030  1.00  0.00    +0.000 C 
ATOM     30  O   UNL     1       3.513  -0.984   3.030  1.00  0.00    +0.000 OA
ENDBRANCH  27  28
ENDBRANCH  21  27
ENDBRANCH  10  21
TORSDOF 7
