REMARK  Name = /srv/my_project/app/compsite/backup/Dave/CORINA_stuff/newPDBs/SANC00205.pdb
AUTHORGENERATED BY OPEN BABEL 2.3.2
REMARK  7 active torsions:
REMARK  status: ('A' for Active; 'I' for Inactive)
REMARK    1  A    between atoms: C_1  and  C_2
REMARK    2  A    between atoms: C_2  and  C_12
REMARK    3  A    between atoms: C_3  and  C_4
REMARK    4  A    between atoms: C_4  and  C_5
REMARK    5  A    between atoms: C_5  and  C_7
REMARK    6  A    between atoms: C_7  and  C_8
REMARK    7  A    between atoms: C_9  and  C_10
REMARK                            x       y       z     vdW  Elec       q    Type
REMARK                         _______ _______ _______ _____ _____    ______ ____
ROOT
ATOM      1  C   UNL     1      -0.579  -0.804  -0.582  1.00  0.00    +0.000 C 
ATOM      2 BR   UNL     1      -0.426  -2.562  -1.452  1.00  0.00    +0.000 Br
ENDROOT
BRANCH   1   3
ATOM      3  C   UNL     1      -2.044  -0.606  -0.211  1.00  0.00    +0.000 C 
ATOM      4  C   UNL     1      -2.546  -1.369   0.990  1.00  0.00    +0.000 C 
ATOM      5  C   UNL     1      -2.789   0.243  -0.948  1.00  0.00    +0.000 C 
BRANCH   5   6
ATOM      6  C   UNL     1      -4.210   0.591  -0.725  1.00  0.00    +0.000 C 
ATOM      7  O   UNL     1      -4.784   1.389  -1.457  1.00  0.00    +0.000 OA
ENDBRANCH   5   6
ENDBRANCH   1   3
BRANCH   1   8
ATOM      8  C   UNL     1       0.398  -0.705   0.601  1.00  0.00    +0.000 C 
BRANCH   8  11
ATOM      9  C   UNL     1       2.061   1.928   0.308  1.00  0.00    +0.000 C 
ATOM     10  C   UNL     1       2.576   0.536   0.051  1.00  0.00    +0.000 C 
ATOM     11  C   UNL     1       1.841  -0.589   0.174  1.00  0.00    +0.000 C 
BRANCH  10  12
ATOM     12  C   UNL     1       4.030   0.464  -0.354  1.00  0.00    +0.000 C 
ATOM     13 CL   UNL     1       4.223   0.931  -2.057  1.00  0.00    +0.000 Cl
ENDBRANCH  10  12
ENDBRANCH   8  11
ENDBRANCH   1   8
TORSDOF 5
