REMARK  Name = /srv/my_project/app/compsite/backup/Dave/CORINA_stuff/newPDBs/SANC00452.pdb
AUTHORGENERATED BY OPEN BABEL 2.3.2
REMARK  11 active torsions:
REMARK  status: ('A' for Active; 'I' for Inactive)
REMARK    1  A    between atoms: C_1  and  N_2
REMARK    2  A    between atoms: N_2  and  C_3
REMARK    3  A    between atoms: N_2  and  C_4
REMARK    4  A    between atoms: C_4  and  C_5
REMARK    5  A    between atoms: C_5  and  C_6
REMARK    6  A    between atoms: C_9  and  O_16
REMARK    7  A    between atoms: C_10  and  O_14
REMARK    8  A    between atoms: C_11  and  S_12
REMARK    9  A    between atoms: S_12  and  C_13
REMARK   10  A    between atoms: O_14  and  C_15
REMARK   11  A    between atoms: O_16  and  C_17
REMARK                            x       y       z     vdW  Elec       q    Type
REMARK                         _______ _______ _______ _____ _____    ______ ____
ROOT
ATOM      1  C   UNL     1       0.249   0.288  -0.530  1.00  0.00    +0.000 A 
ATOM      2  C   UNL     1      -0.147   1.661  -0.466  1.00  0.00    +0.000 A 
ATOM      3  C   UNL     1      -1.524   2.003  -0.410  1.00  0.00    +0.000 A 
ATOM      4  C   UNL     1      -2.487   0.975  -0.398  1.00  0.00    +0.000 A 
ATOM      5  C   UNL     1      -2.106  -0.374  -0.343  1.00  0.00    +0.000 A 
ATOM      6  C   UNL     1      -0.745  -0.727  -0.438  1.00  0.00    +0.000 A 
ATOM      7  S   UNL     1      -2.129   3.709  -0.404  1.00  0.00    +0.000 S 
ATOM      8  S   UNL     1      -1.921   4.203   1.580  1.00  0.00    +0.000 S 
ATOM      9  S   UNL     1      -0.059   5.052   1.678  1.00  0.00    +0.000 S 
ATOM     10  S   UNL     1       1.239   3.478   1.492  1.00  0.00    +0.000 S 
ATOM     11  S   UNL     1       1.125   2.957  -0.496  1.00  0.00    +0.000 S 
ENDROOT
BRANCH   6  12
ATOM     12  S   UNL     1      -0.291  -2.480  -0.491  1.00  0.00    +0.000 S 
ATOM     13  C   UNL     1      -0.589  -2.925   1.240  1.00  0.00    +0.000 C 
ENDBRANCH   6  12
BRANCH   5  14
ATOM     14  O   UNL     1      -3.042  -1.383  -0.285  1.00  0.00    +0.000 OA
ATOM     15  C   UNL     1      -3.901  -1.286   0.853  1.00  0.00    +0.000 C 
ENDBRANCH   5  14
BRANCH   4  16
ATOM     16  O   UNL     1      -3.826   1.307  -0.401  1.00  0.00    +0.000 OA
ATOM     17  C   UNL     1      -4.370   1.156  -1.716  1.00  0.00    +0.000 C 
ENDBRANCH   4  16
BRANCH   1  18
ATOM     18  C   UNL     1       1.723  -0.096  -0.691  1.00  0.00    +0.000 C 
BRANCH  18  19
ATOM     19  C   UNL     1       2.430  -0.325   0.660  1.00  0.00    +0.000 C 
BRANCH  19  21
ATOM     20  C   UNL     1       4.132  -1.909  -0.083  1.00  0.00    +0.000 C 
ATOM     21  N   UNL     1       3.863  -0.656   0.618  1.00  0.00    +0.000 NA
ATOM     22  C   UNL     1       4.679   0.431   0.085  1.00  0.00    +0.000 C 
ENDBRANCH  19  21
ENDBRANCH  18  19
ENDBRANCH   1  18
TORSDOF 6
