REMARK  Name = /srv/my_project/app/compsite/backup/Dave/CORINA_stuff/newPDBs/SANC00378.pdb
AUTHORGENERATED BY OPEN BABEL 2.3.2
REMARK  5 active torsions:
REMARK  status: ('A' for Active; 'I' for Inactive)
REMARK    1  A    between atoms: C_12  and  O_13
REMARK    2  A    between atoms: O_13  and  C_14
REMARK    3  A    between atoms: C_15  and  O_16
REMARK    4  A    between atoms: O_16  and  C_17
REMARK    5  A    between atoms: N_22  and  C_23
REMARK                            x       y       z     vdW  Elec       q    Type
REMARK                         _______ _______ _______ _____ _____    ______ ____
ROOT
ATOM      1  C   UNL     1      -1.798  -0.852   0.305  1.00  0.00    +0.000 C 
ATOM      2  C   UNL     1      -2.151   0.453  -0.443  1.00  0.00    +0.000 C 
ATOM      3  C   UNL     1      -0.918   1.408  -0.244  1.00  0.00    +0.000 C 
ATOM      4  C   UNL     1      -1.012   2.152   1.076  1.00  0.00    +0.000 C 
ATOM      5  C   UNL     1      -1.026   3.488   1.187  1.00  0.00    +0.000 C 
ATOM      6  C   UNL     1      -0.955   4.354  -0.010  1.00  0.00    +0.000 C 
ATOM      7  O   UNL     1      -0.985   5.575   0.088  1.00  0.00    +0.000 OA
ATOM      8  C   UNL     1      -0.851   3.690  -1.326  1.00  0.00    +0.000 C 
ATOM      9  C   UNL     1      -0.836   2.352  -1.424  1.00  0.00    +0.000 C 
ATOM     10  C   UNL     1       0.203   0.386  -0.215  1.00  0.00    +0.000 A 
ATOM     11  C   UNL     1       1.575   0.533  -0.376  1.00  0.00    +0.000 A 
ATOM     12  C   UNL     1       2.399  -0.617  -0.385  1.00  0.00    +0.000 A 
ATOM     13  C   UNL     1       1.825  -1.894  -0.210  1.00  0.00    +0.000 A 
ATOM     14  C   UNL     1       0.449  -2.030  -0.024  1.00  0.00    +0.000 A 
ATOM     15  C   UNL     1      -0.289  -3.332   0.082  1.00  0.00    +0.000 C 
ATOM     16  C   UNL     1      -1.686  -3.172  -0.569  1.00  0.00    +0.000 C 
ATOM     17  N   UNL     1      -2.507  -2.109   0.040  1.00  0.00    +0.000 NA
ATOM     18  C   UNL     1      -3.793  -1.963  -0.622  1.00  0.00    +0.000 C 
ATOM     19  C   UNL     1      -0.323  -0.885   0.021  1.00  0.00    +0.000 A 
ENDROOT
BRANCH  11  20
ATOM     20  O   UNL     1       2.049   1.800  -0.588  1.00  0.00    +0.000 OA
ATOM     21  C   UNL     1       2.984   2.207   0.409  1.00  0.00    +0.000 C 
ENDBRANCH  11  20
BRANCH  12  22
ATOM     22  O   UNL     1       3.737  -0.402  -0.605  1.00  0.00    +0.000 OA
ATOM     23  C   UNL     1       4.584  -1.539  -0.690  1.00  0.00    +0.000 C 
ENDBRANCH  12  22
TORSDOF 2
