REMARK  Name = SANCDB_00935_minRM1.pdb
AUTHORGENERATED BY OPEN BABEL 2.3.2
REMARK  11 active torsions:
REMARK  status: ('A' for Active; 'I' for Inactive)
REMARK    1  A    between atoms: C_1  and  C_2
REMARK    2  A    between atoms: C_2  and  C_22
REMARK    3  A    between atoms: C_6  and  C_21
REMARK    4  A    between atoms: C_8  and  O_20
REMARK    5  A    between atoms: C_10  and  C_18
REMARK    6  A    between atoms: C_10  and  O_19
REMARK    7  A    between atoms: C_11  and  C_12
REMARK    8  A    between atoms: C_12  and  C_13
REMARK    9  A    between atoms: C_13  and  C_14
REMARK   10  A    between atoms: C_14  and  C_16
REMARK   11  A    between atoms: C_22  and  O_23
REMARK                            x       y       z     vdW  Elec       q    Type
REMARK                         _______ _______ _______ _____ _____    ______ ____
ROOT
ATOM      1  C   UNL     1      -3.773   0.380  -0.431  1.00  0.00    +0.000 C 
ATOM      2  C   UNL     1      -2.761   0.597   0.714  1.00  0.00    +0.000 C 
ATOM      3  C   UNL     1      -2.412   2.105   0.803  1.00  0.00    +0.000 C 
ATOM      4  C   UNL     1      -1.522   2.595  -0.330  1.00  0.00    +0.000 C 
ATOM      5  C   UNL     1      -0.235   1.781  -0.445  1.00  0.00    +0.000 C 
ATOM      6  C   UNL     1      -0.450   0.243  -0.606  1.00  0.00    +0.000 C 
ATOM      7  C   UNL     1      -1.425  -0.223   0.539  1.00  0.00    +0.000 C 
ATOM      8  C   UNL     1      -1.618  -1.757   0.608  1.00  0.00    +0.000 C 
ATOM      9  C   UNL     1      -0.696  -2.585  -0.277  1.00  0.00    +0.000 C 
ATOM     10  C   UNL     1       0.763  -2.096  -0.314  1.00  0.00    +0.000 C 
ATOM     11  C   UNL     1       0.916  -0.527  -0.334  1.00  0.00    +0.000 C 
ATOM     12  C   UNL     1       1.456  -2.848  -1.464  1.00  0.00    +0.000 C 
ATOM     13  C   UNL     1      -0.954  -0.025  -2.042  1.00  0.00    +0.000 C 
ENDROOT
BRANCH  10  14
ATOM     14  O   UNL     1       1.374  -2.541   0.915  1.00  0.00    +0.000 OA
ATOM     15  H   UNL     1       1.431  -3.513   0.892  1.00  0.00    +0.000 HD
ENDBRANCH  10  14
BRANCH   8  16
ATOM     16  O   UNL     1      -1.425  -2.178   1.964  1.00  0.00    +0.000 OA
ATOM     17  H   UNL     1      -0.465  -2.114   2.146  1.00  0.00    +0.000 HD
ENDBRANCH   8  16
BRANCH  11  18
ATOM     18  C   UNL     1       2.127  -0.014  -1.172  1.00  0.00    +0.000 C 
BRANCH  18  19
ATOM     19  C   UNL     1       3.502  -0.245  -0.511  1.00  0.00    +0.000 C 
BRANCH  19  20
ATOM     20  C   UNL     1       3.784   0.659   0.676  1.00  0.00    +0.000 C 
ATOM     21  C   UNL     1       3.721   0.168   1.926  1.00  0.00    +0.000 C 
BRANCH  20  22
ATOM     22  C   UNL     1       4.158   2.053   0.481  1.00  0.00    +0.000 C 
ATOM     23  C   UNL     1       4.344   2.680  -0.688  1.00  0.00    +0.000 C 
ENDBRANCH  20  22
ENDBRANCH  19  20
ENDBRANCH  18  19
ENDBRANCH  11  18
BRANCH   2  24
ATOM     24  C   UNL     1      -3.448   0.187   2.054  1.00  0.00    +0.000 C 
BRANCH  24  25
ATOM     25  O   UNL     1      -4.578   1.005   2.347  1.00  0.00    +0.000 OA
ATOM     26  H   UNL     1      -5.323   0.673   1.819  1.00  0.00    +0.000 HD
ENDBRANCH  24  25
ENDBRANCH   2  24
TORSDOF 8
