REMARK  Name = /srv/my_project/app/compsite/backup/Dave/CORINA_stuff/newPDBs/SANC00384.pdb
AUTHORGENERATED BY OPEN BABEL 2.3.2
REMARK  9 active torsions:
REMARK  status: ('A' for Active; 'I' for Inactive)
REMARK    1  A    between atoms: C_12  and  O_13
REMARK    2  A    between atoms: C_14  and  O_15
REMARK    3  A    between atoms: O_15  and  C_16
REMARK    4  A    between atoms: N_21  and  C_22
REMARK    5  A    between atoms: C_29  and  O_30
REMARK    6  A    between atoms: O_30  and  C_31
REMARK    7  A    between atoms: C_40  and  O_41
REMARK    8  A    between atoms: O_41  and  C_42
REMARK    9  A    between atoms: N_45  and  C_46
REMARK                            x       y       z     vdW  Elec       q    Type
REMARK                         _______ _______ _______ _____ _____    ______ ____
ROOT
ATOM      1  C   UNL     1       3.528  -1.905   1.484  1.00  0.00    +0.000 C 
ATOM      2  C   UNL     1       2.476  -2.760   0.703  1.00  0.00    +0.000 C 
ATOM      3  C   UNL     1       1.009  -2.372   0.764  1.00  0.00    +0.000 A 
ATOM      4  C   UNL     1       0.408  -1.877   1.927  1.00  0.00    +0.000 A 
ATOM      5  C   UNL     1      -0.954  -1.563   1.942  1.00  0.00    +0.000 A 
ATOM      6  C   UNL     1      -1.745  -1.759   0.809  1.00  0.00    +0.000 A 
ATOM      7  C   UNL     1      -1.166  -2.281  -0.346  1.00  0.00    +0.000 A 
ATOM      8  C   UNL     1       0.200  -2.584  -0.365  1.00  0.00    +0.000 A 
ATOM      9  O   UNL     1      -3.071  -1.422   0.973  1.00  0.00    +0.000 OA
ATOM     10  C   UNL     1      -3.929  -1.484  -0.105  1.00  0.00    +0.000 A 
ATOM     11  C   UNL     1      -4.537  -2.714  -0.422  1.00  0.00    +0.000 A 
ATOM     12  C   UNL     1      -5.496  -2.779  -1.434  1.00  0.00    +0.000 A 
ATOM     13  C   UNL     1      -5.891  -1.589  -2.059  1.00  0.00    +0.000 A 
ATOM     14  C   UNL     1      -5.326  -0.349  -1.717  1.00  0.00    +0.000 A 
ATOM     15  C   UNL     1      -5.915   0.909  -2.305  1.00  0.00    +0.000 C 
ATOM     16  C   UNL     1      -5.141   2.189  -1.964  1.00  0.00    +0.000 C 
ATOM     17  N   UNL     1      -4.527   2.216  -0.628  1.00  0.00    +0.000 NA
ATOM     18  C   UNL     1      -5.533   2.333   0.428  1.00  0.00    +0.000 C 
ATOM     19  C   UNL     1      -3.638   1.040  -0.412  1.00  0.00    +0.000 C 
ATOM     20  C   UNL     1      -2.308   1.178  -1.222  1.00  0.00    +0.000 C 
ATOM     21  C   UNL     1      -1.167   1.957  -0.597  1.00  0.00    +0.000 A 
ATOM     22  C   UNL     1      -1.331   2.871   0.451  1.00  0.00    +0.000 A 
ATOM     23  C   UNL     1      -0.232   3.553   0.984  1.00  0.00    +0.000 A 
ATOM     24  C   UNL     1       1.042   3.349   0.456  1.00  0.00    +0.000 A 
ATOM     25  C   UNL     1       1.227   2.431  -0.579  1.00  0.00    +0.000 A 
ATOM     26  C   UNL     1       0.125   1.765  -1.121  1.00  0.00    +0.000 A 
ATOM     27  O   UNL     1       2.457   2.203  -1.153  1.00  0.00    +0.000 OA
ATOM     28  C   UNL     1       3.352   1.472  -0.392  1.00  0.00    +0.000 A 
ATOM     29  C   UNL     1       3.001   0.216   0.128  1.00  0.00    +0.000 A 
ATOM     30  C   UNL     1       3.916  -0.554   0.860  1.00  0.00    +0.000 A 
ATOM     31  C   UNL     1       5.197  -0.004   1.087  1.00  0.00    +0.000 A 
ATOM     32  C   UNL     1       5.556   1.240   0.530  1.00  0.00    +0.000 A 
ATOM     33  C   UNL     1       4.644   1.981  -0.222  1.00  0.00    +0.000 A 
ATOM     34  C   UNL     1       6.240  -0.760   1.876  1.00  0.00    +0.000 C 
ATOM     35  C   UNL     1       5.668  -1.970   2.616  1.00  0.00    +0.000 C 
ATOM     36  N   UNL     1       4.715  -2.753   1.817  1.00  0.00    +0.000 NA
ATOM     37  C   UNL     1       5.357  -3.368   0.654  1.00  0.00    +0.000 C 
ATOM     38  C   UNL     1      -4.311  -0.290  -0.748  1.00  0.00    +0.000 A 
ENDROOT
BRANCH  11  39
ATOM     39  O   UNL     1      -4.194  -3.826   0.302  1.00  0.00    +0.000 OA
ATOM     40  H   UNL     1      -3.597  -3.536   1.015  1.00  0.00    +0.000 HD
ENDBRANCH  11  39
BRANCH  12  41
ATOM     41  O   UNL     1      -6.173  -3.875  -1.897  1.00  0.00    +0.000 OA
ATOM     42  C   UNL     1      -5.716  -5.159  -1.494  1.00  0.00    +0.000 C 
ENDBRANCH  12  41
BRANCH  24  43
ATOM     43  O   UNL     1       2.081   4.044   1.015  1.00  0.00    +0.000 OA
ATOM     44  C   UNL     1       2.412   5.168   0.199  1.00  0.00    +0.000 C 
ENDBRANCH  24  43
BRANCH  33  45
ATOM     45  O   UNL     1       4.912   3.185  -0.820  1.00  0.00    +0.000 OA
ATOM     46  C   UNL     1       6.176   3.777  -0.557  1.00  0.00    +0.000 C 
ENDBRANCH  33  45
TORSDOF 4
