REMARK  Name = /srv/my_project/app/compsite/backup/Dave/CORINA_stuff/newPDBs/SANC00179.pdb
AUTHORGENERATED BY OPEN BABEL 2.3.2
REMARK  22 active torsions:
REMARK  status: ('A' for Active; 'I' for Inactive)
REMARK    1  A    between atoms: C_2  and  C_3
REMARK    2  A    between atoms: C_2  and  C_16
REMARK    3  A    between atoms: C_3  and  C_5
REMARK    4  A    between atoms: C_3  and  C_6
REMARK    5  A    between atoms: C_8  and  C_9
REMARK    6  A    between atoms: C_10  and  C_11
REMARK    7  A    between atoms: C_14  and  C_15
REMARK    8  A    between atoms: C_16  and  C_18
REMARK    9  A    between atoms: C_16  and  C_19
REMARK   10  A    between atoms: C_19  and  O_21
REMARK   11  A    between atoms: C_19  and  C_22
REMARK   12  A    between atoms: C_22  and  C_24
REMARK   13  A    between atoms: C_22  and  C_25
REMARK   14  A    between atoms: C_25  and  O_27
REMARK   15  A    between atoms: O_27  and  C_28
REMARK   16  A    between atoms: C_30  and  C_32
REMARK   17  A    between atoms: C_33  and  O_34
REMARK   18  A    between atoms: C_33  and  C_35
REMARK   19  A    between atoms: C_35  and  C_36
REMARK   20  A    between atoms: C_38  and  C_40
REMARK   21  A    between atoms: C_40  and  C_41
REMARK   22  A    between atoms: C_42  and  C_44
REMARK                            x       y       z     vdW  Elec       q    Type
REMARK                         _______ _______ _______ _____ _____    ______ ____
ROOT
ATOM      1  C   UNL     1      -0.780   0.471  -0.384  1.00  0.00    +0.000 C 
ENDROOT
BRANCH   1   2
ATOM      2  C   UNL     1      -2.238   0.176   0.048  1.00  0.00    +0.000 C 
ATOM      3  C   UNL     1      -2.786   1.295   0.936  1.00  0.00    +0.000 C 
BRANCH   2   5
ATOM      4  O   UNL     1      -3.005   0.756  -2.151  1.00  0.00    +0.000 OA
ATOM      5  C   UNL     1      -3.142   0.012  -1.175  1.00  0.00    +0.000 C 
BRANCH   5   6
ATOM      6  C   UNL     1      -4.201  -1.100  -1.133  1.00  0.00    +0.000 C 
ATOM      7  C   UNL     1      -4.697  -1.442  -2.539  1.00  0.00    +0.000 C 
BRANCH   6   8
ATOM      8  C   UNL     1      -5.348  -0.683  -0.239  1.00  0.00    +0.000 A 
ATOM      9  O   UNL     1      -5.903   0.527  -0.622  1.00  0.00    +0.000 OA
ATOM     10  C   UNL     1      -6.945   1.091   0.090  1.00  0.00    +0.000 A 
ATOM     11  C   UNL     1      -7.393   2.389  -0.513  1.00  0.00    +0.000 C 
ATOM     12  C   UNL     1      -7.481   0.512   1.179  1.00  0.00    +0.000 A 
ATOM     13  C   UNL     1      -8.588   1.048   2.034  1.00  0.00    +0.000 C 
ATOM     14  C   UNL     1      -6.918  -0.795   1.614  1.00  0.00    +0.000 A 
ATOM     15  O   UNL     1      -7.360  -1.377   2.601  1.00  0.00    +0.000 OA
ATOM     16  C   UNL     1      -5.796  -1.377   0.825  1.00  0.00    +0.000 A 
ATOM     17  C   UNL     1      -5.301  -2.701   1.325  1.00  0.00    +0.000 C 
ENDBRANCH   6   8
ENDBRANCH   5   6
ENDBRANCH   2   5
ENDBRANCH   1   2
BRANCH   1  18
ATOM     18  O   UNL     1      -0.709   1.754  -1.018  1.00  0.00    +0.000 OA
ATOM     19  H   UNL     1      -1.368   1.762  -1.747  1.00  0.00    +0.000 HD
ENDBRANCH   1  18
BRANCH   1  20
ATOM     20  C   UNL     1      -0.135  -0.585  -1.304  1.00  0.00    +0.000 C 
ATOM     21  C   UNL     1      -0.235  -2.014  -0.775  1.00  0.00    +0.000 C 
BRANCH  20  22
ATOM     22  C   UNL     1       1.331  -0.270  -1.548  1.00  0.00    +0.000 C 
ATOM     23  O   UNL     1       1.841  -0.255  -2.662  1.00  0.00    +0.000 OA
BRANCH  22  24
ATOM     24  O   UNL     1       2.007  -0.090  -0.379  1.00  0.00    +0.000 OA
BRANCH  24  25
ATOM     25  C   UNL     1       3.399   0.266  -0.497  1.00  0.00    +0.000 C 
ATOM     26  C   UNL     1       4.294  -0.982  -0.683  1.00  0.00    +0.000 C 
ATOM     27  C   UNL     1       3.760  -2.202   0.088  1.00  0.00    +0.000 C 
ATOM     28  C   UNL     1       5.776  -0.656  -0.346  1.00  0.00    +0.000 C 
ATOM     29  O   UNL     1       6.018   0.749  -0.383  1.00  0.00    +0.000 OA
ATOM     30  C   UNL     1       5.266   1.564   0.522  1.00  0.00    +0.000 C 
ATOM     31  C   UNL     1       3.833   1.046   0.751  1.00  0.00    +0.000 C 
ATOM     32  C   UNL     1       2.875   2.194   1.086  1.00  0.00    +0.000 C 
BRANCH  28  33
ATOM     33  O   UNL     1       6.125  -1.145   0.941  1.00  0.00    +0.000 OA
ATOM     34  H   UNL     1       7.092  -1.065   1.002  1.00  0.00    +0.000 HD
ENDBRANCH  28  33
BRANCH  28  35
ATOM     35  C   UNL     1       6.751  -1.256  -1.387  1.00  0.00    +0.000 C 
ATOM     36  C   UNL     1       6.763  -2.774  -1.484  1.00  0.00    +0.000 C 
ENDBRANCH  28  35
BRANCH  30  37
ATOM     37  C   UNL     1       6.031   1.795   1.836  1.00  0.00    +0.000 C 
ATOM     38  C   UNL     1       7.448   2.302   1.605  1.00  0.00    +0.000 C 
ENDBRANCH  30  37
ENDBRANCH  24  25
ENDBRANCH  22  24
ENDBRANCH  20  22
ENDBRANCH   1  20
TORSDOF 12
