REMARK  Name = /srv/my_project/app/compsite/backup/Dave/CORINA_stuff/newPDBs/SANC00318.pdb
AUTHORGENERATED BY OPEN BABEL 2.3.2
REMARK  3 active torsions:
REMARK  status: ('A' for Active; 'I' for Inactive)
REMARK    1  A    between atoms: C_4  and  O_6
REMARK    2  A    between atoms: O_6  and  C_7
REMARK    3  A    between atoms: C_23  and  O_25
REMARK                            x       y       z     vdW  Elec       q    Type
REMARK                         _______ _______ _______ _____ _____    ______ ____
ROOT
ATOM      1  C   UNL     1      -1.053   0.719  -0.327  1.00  0.00    +0.000 C 
ATOM      2  C   UNL     1      -2.546   0.425  -0.139  1.00  0.00    +0.000 C 
ATOM      3  C   UNL     1      -2.811  -0.053   1.297  1.00  0.00    +0.000 C 
ATOM      4  C   UNL     1      -1.797  -1.068   1.756  1.00  0.00    +0.000 C 
ATOM      5  C   UNL     1      -0.623  -1.300   1.143  1.00  0.00    +0.000 C 
ATOM      6  C   UNL     1      -0.150  -0.519  -0.069  1.00  0.00    +0.000 C 
ATOM      7  C   UNL     1       1.305  -0.000   0.027  1.00  0.00    +0.000 A 
ATOM      8  C   UNL     1       2.291  -0.602   0.828  1.00  0.00    +0.000 A 
ATOM      9  C   UNL     1       3.568  -0.079   0.795  1.00  0.00    +0.000 A 
ATOM     10  O   UNL     1       4.629  -0.542   1.510  1.00  0.00    +0.000 OA
ATOM     11  C   UNL     1       5.663   0.368   1.082  1.00  0.00    +0.000 C 
ATOM     12  O   UNL     1       5.207   1.343   0.121  1.00  0.00    +0.000 OA
ATOM     13  C   UNL     1       3.899   0.992   0.002  1.00  0.00    +0.000 A 
ATOM     14  C   UNL     1       2.973   1.608  -0.809  1.00  0.00    +0.000 A 
ATOM     15  C   UNL     1       1.661   1.106  -0.808  1.00  0.00    +0.000 A 
ATOM     16  C   UNL     1       0.614   1.783  -1.682  1.00  0.00    +0.000 C 
ATOM     17  N   UNL     1      -0.704   1.105  -1.718  1.00  0.00    +0.000 NA
ATOM     18  C   UNL     1      -0.597  -0.189  -2.445  1.00  0.00    +0.000 C 
ATOM     19  C   UNL     1      -0.262  -1.292  -1.418  1.00  0.00    +0.000 C 
ENDROOT
BRANCH   3  20
ATOM     20  O   UNL     1      -4.087  -0.689   1.398  1.00  0.00    +0.000 OA
ATOM     21  C   UNL     1      -5.174   0.225   1.375  1.00  0.00    +0.000 C 
ENDBRANCH   3  20
BRANCH  19  22
ATOM     22  O   UNL     1      -1.298  -2.279  -1.453  1.00  0.00    +0.000 OA
ATOM     23  H   UNL     1      -1.199  -2.851  -0.673  1.00  0.00    +0.000 HD
ENDBRANCH  19  22
TORSDOF 2
