REMARK  Name = /srv/my_project/app/compsite/backup/Dave/CORINA_stuff/newPDBs/SANC00675.pdb
AUTHORGENERATED BY OPEN BABEL 2.3.2
REMARK  11 active torsions:
REMARK  status: ('A' for Active; 'I' for Inactive)
REMARK    1  A    between atoms: C_1  and  O_2
REMARK    2  A    between atoms: O_2  and  C_3
REMARK    3  A    between atoms: C_6  and  C_7
REMARK    4  A    between atoms: C_7  and  C_8
REMARK    5  A    between atoms: C_8  and  C_9
REMARK    6  A    between atoms: C_11  and  O_12
REMARK    7  A    between atoms: C_13  and  O_14
REMARK    8  A    between atoms: O_14  and  C_15
REMARK    9  A    between atoms: C_16  and  O_17
REMARK   10  A    between atoms: O_17  and  C_18
REMARK   11  A    between atoms: C_21  and  O_22
REMARK                            x       y       z     vdW  Elec       q    Type
REMARK                         _______ _______ _______ _____ _____    ______ ____
ROOT
ATOM      1  C   UNL     1       0.112   0.559  -0.455  1.00  0.00    +0.000 C 
ENDROOT
BRANCH   1   2
ATOM      2  C   UNL     1      -1.355   0.804  -0.196  1.00  0.00    +0.000 A 
ATOM      3  C   UNL     1      -1.772   1.976   0.437  1.00  0.00    +0.000 A 
ATOM      4  C   UNL     1      -3.124   2.174   0.680  1.00  0.00    +0.000 A 
ATOM      5  C   UNL     1      -4.092   1.234   0.298  1.00  0.00    +0.000 A 
ATOM      6  C   UNL     1      -3.682   0.033  -0.303  1.00  0.00    +0.000 A 
ATOM      7  C   UNL     1      -2.313  -0.163  -0.554  1.00  0.00    +0.000 A 
BRANCH   4   8
ATOM      8  O   UNL     1      -3.501   3.332   1.308  1.00  0.00    +0.000 OA
ATOM      9  H   UNL     1      -4.469   3.253   1.412  1.00  0.00    +0.000 HD
ENDBRANCH   4   8
BRANCH   5  10
ATOM     10  O   UNL     1      -5.378   1.600   0.621  1.00  0.00    +0.000 OA
ATOM     11  C   UNL     1      -6.385   1.196  -0.302  1.00  0.00    +0.000 C 
ENDBRANCH   5  10
BRANCH   6  12
ATOM     12  O   UNL     1      -4.646  -0.895  -0.592  1.00  0.00    +0.000 OA
ATOM     13  C   UNL     1      -4.228  -2.161  -1.087  1.00  0.00    +0.000 C 
ENDBRANCH   6  12
ENDBRANCH   1   2
BRANCH   1  14
ATOM     14  C   UNL     1       0.780  -0.161   0.720  1.00  0.00    +0.000 C 
BRANCH  14  18
ATOM     15  C   UNL     1       4.977  -0.855  -0.071  1.00  0.00    +0.000 A 
ATOM     16  C   UNL     1       4.570   0.309   0.579  1.00  0.00    +0.000 A 
ATOM     17  C   UNL     1       3.210   0.528   0.838  1.00  0.00    +0.000 A 
ATOM     18  C   UNL     1       2.244  -0.413   0.456  1.00  0.00    +0.000 A 
ATOM     19  C   UNL     1       2.654  -1.579  -0.201  1.00  0.00    +0.000 A 
ATOM     20  C   UNL     1       4.005  -1.786  -0.454  1.00  0.00    +0.000 A 
BRANCH  15  22
ATOM     21  C   UNL     1       7.281  -0.278  -0.005  1.00  0.00    +0.000 C 
ATOM     22  O   UNL     1       6.266  -1.199  -0.388  1.00  0.00    +0.000 OA
ENDBRANCH  15  22
BRANCH  20  23
ATOM     23  O   UNL     1       4.371  -2.937  -1.098  1.00  0.00    +0.000 OA
ATOM     24  H   UNL     1       5.344  -2.883  -1.169  1.00  0.00    +0.000 HD
ENDBRANCH  20  23
ENDBRANCH  14  18
ENDBRANCH   1  14
TORSDOF 8
