REMARK  Name = SANCDB_00761_minRM1.pdb
AUTHORGENERATED BY OPEN BABEL 2.3.2
REMARK  4 active torsions:
REMARK  status: ('A' for Active; 'I' for Inactive)
REMARK    1  A    between atoms: C_1  and  C_2
REMARK    2  A    between atoms: C_6  and  C_7
REMARK    3  A    between atoms: C_23  and  C_24
REMARK    4  A    between atoms: C_23  and  O_25
REMARK                            x       y       z     vdW  Elec       q    Type
REMARK                         _______ _______ _______ _____ _____    ______ ____
ROOT
ATOM      1  C   UNL     1      -2.310   3.232   1.023  1.00  0.00    +0.000 C 
ATOM      2  C   UNL     1      -2.199   1.720   0.879  1.00  0.00    +0.000 C 
ATOM      3  C   UNL     1      -3.536   1.052   0.998  1.00  0.00    +0.000 C 
ATOM      4  O   UNL     1      -4.396   1.321   1.821  1.00  0.00    +0.000 OA
ATOM      5  O   UNL     1      -3.674   0.077   0.060  1.00  0.00    +0.000 OA
ATOM      6  C   UNL     1      -2.535   0.019  -0.828  1.00  0.00    +0.000 C 
ATOM      7  C   UNL     1      -3.128   0.180  -2.248  1.00  0.00    +0.000 C 
ATOM      8  C   UNL     1      -1.726   1.298  -0.512  1.00  0.00    +0.000 C 
ATOM      9  C   UNL     1      -0.223   1.178  -0.690  1.00  0.00    +0.000 C 
ATOM     10  O   UNL     1       0.320   1.145  -1.783  1.00  0.00    +0.000 OA
ATOM     11  O   UNL     1       0.417   1.106   0.499  1.00  0.00    +0.000 OA
ATOM     12  C   UNL     1       1.829   0.857   0.583  1.00  0.00    +0.000 C 
ATOM     13  C   UNL     1       2.739   1.921  -0.001  1.00  0.00    +0.000 C 
ATOM     14  C   UNL     1       4.074   1.185  -0.016  1.00  0.00    +0.000 C 
ATOM     15  N   UNL     1       3.743  -0.175  -0.467  1.00  0.00    +0.000 NA
ATOM     16  C   UNL     1       4.562  -1.230   0.155  1.00  0.00    +0.000 C 
ATOM     17  C   UNL     1       3.612  -2.068   0.947  1.00  0.00    +0.000 C 
ATOM     18  C   UNL     1       2.357  -1.621   0.827  1.00  0.00    +0.000 C 
ATOM     19  C   UNL     1       1.105  -2.156   1.435  1.00  0.00    +0.000 C 
ATOM     20  O   UNL     1       0.115  -2.204   0.398  1.00  0.00    +0.000 OA
ATOM     21  C   UNL     1      -1.058  -1.546   0.637  1.00  0.00    +0.000 C 
ATOM     22  O   UNL     1      -1.425  -1.139   1.728  1.00  0.00    +0.000 OA
ATOM     23  C   UNL     1      -1.834  -1.385  -0.690  1.00  0.00    +0.000 C 
ATOM     24  C   UNL     1      -2.821  -2.562  -0.738  1.00  0.00    +0.000 C 
ATOM     25  C   UNL     1       2.327  -0.433  -0.084  1.00  0.00    +0.000 C 
ENDROOT
BRANCH  23  26
ATOM     26  O   UNL     1      -0.944  -1.543  -1.806  1.00  0.00    +0.000 OA
ATOM     27  H   UNL     1      -0.355  -2.298  -1.611  1.00  0.00    +0.000 HD
ENDBRANCH  23  26
TORSDOF 1
