REMARK  Name = SANCDB_00851_minRM1.pdb
AUTHORGENERATED BY OPEN BABEL 2.3.2
REMARK  22 active torsions:
REMARK  status: ('A' for Active; 'I' for Inactive)
REMARK    1  A    between atoms: C_1  and  C_2
REMARK    2  A    between atoms: C_3  and  C_11
REMARK    3  A    between atoms: C_4  and  C_9
REMARK    4  A    between atoms: C_4  and  C_10
REMARK    5  A    between atoms: C_6  and  O_8
REMARK    6  A    between atoms: C_12  and  C_13
REMARK    7  A    between atoms: C_13  and  C_42
REMARK    8  A    between atoms: C_14  and  C_15
REMARK    9  A    between atoms: C_16  and  C_17
REMARK   10  A    between atoms: C_17  and  C_41
REMARK   11  A    between atoms: C_18  and  C_19
REMARK   12  A    between atoms: C_20  and  C_21
REMARK   13  A    between atoms: C_22  and  C_23
REMARK   14  A    between atoms: C_22  and  C_24
REMARK   15  A    between atoms: C_25  and  C_26
REMARK   16  A    between atoms: C_27  and  C_28
REMARK   17  A    between atoms: C_27  and  C_29
REMARK   18  A    between atoms: C_30  and  C_31
REMARK   19  A    between atoms: C_32  and  C_40
REMARK   20  A    between atoms: C_34  and  O_39
REMARK   21  A    between atoms: C_36  and  C_37
REMARK   22  A    between atoms: C_36  and  C_38
REMARK                            x       y       z     vdW  Elec       q    Type
REMARK                         _______ _______ _______ _____ _____    ______ ____
ROOT
ATOM      1  C   UNL     1      -0.348  -0.470   0.340  1.00  0.00    +0.000 C 
ATOM      2  C   UNL     1       0.452   0.604   0.237  1.00  0.00    +0.000 C 
ENDROOT
BRANCH   1   4
ATOM      3  C   UNL     1      -2.692  -1.378   0.386  1.00  0.00    +0.000 C 
ATOM      4  C   UNL     1      -1.795  -0.369   0.334  1.00  0.00    +0.000 C 
ATOM      5  C   UNL     1      -2.333  -2.842   0.449  1.00  0.00    +0.000 C 
BRANCH   3   7
ATOM      6  C   UNL     1      -5.153  -1.894   0.390  1.00  0.00    +0.000 C 
ATOM      7  C   UNL     1      -4.119  -1.034   0.379  1.00  0.00    +0.000 C 
BRANCH   6   9
ATOM      8  C   UNL     1      -7.646  -2.218   0.357  1.00  0.00    +0.000 C 
ATOM      9  C   UNL     1      -6.534  -1.451   0.387  1.00  0.00    +0.000 C 
ATOM     10  C   UNL     1      -7.648  -3.727   0.313  1.00  0.00    +0.000 C 
BRANCH   8  12
ATOM     11  C   UNL     1     -10.155  -2.136   0.306  1.00  0.00    +0.000 C 
ATOM     12  C   UNL     1      -8.948  -1.547   0.367  1.00  0.00    +0.000 C 
BRANCH  11  15
ATOM     13  C   UNL     1     -11.153  -0.763   2.754  1.00  0.00    +0.000 C 
ATOM     14  C   UNL     1     -11.839  -0.728   1.408  1.00  0.00    +0.000 C 
ATOM     15  C   UNL     1     -11.411  -1.387   0.304  1.00  0.00    +0.000 C 
ATOM     16  C   UNL     1     -12.195  -1.411  -1.027  1.00  0.00    +0.000 C 
ATOM     17  C   UNL     1     -13.589  -0.732  -0.896  1.00  0.00    +0.000 C 
ATOM     18  C   UNL     1     -13.615   0.479   0.027  1.00  0.00    +0.000 C 
ATOM     19  C   UNL     1     -13.098   0.116   1.418  1.00  0.00    +0.000 C 
ATOM     20  C   UNL     1     -12.464  -2.864  -1.493  1.00  0.00    +0.000 C 
ATOM     21  C   UNL     1     -11.377  -0.712  -2.139  1.00  0.00    +0.000 C 
BRANCH  18  22
ATOM     22  O   UNL     1     -12.872   1.563  -0.525  1.00  0.00    +0.000 OA
ATOM     23  H   UNL     1     -11.937   1.429  -0.290  1.00  0.00    +0.000 HD
ENDBRANCH  18  22
ENDBRANCH  11  15
ENDBRANCH   8  12
ENDBRANCH   6   9
ENDBRANCH   3   7
ENDBRANCH   1   4
BRANCH   2  24
ATOM     24  C   UNL     1       1.899   0.506   0.251  1.00  0.00    +0.000 C 
ATOM     25  C   UNL     1       2.793   1.509   0.114  1.00  0.00    +0.000 C 
ATOM     26  C   UNL     1       2.429   2.958  -0.096  1.00  0.00    +0.000 C 
BRANCH  25  27
ATOM     27  C   UNL     1       4.221   1.175   0.170  1.00  0.00    +0.000 C 
ATOM     28  C   UNL     1       5.251   2.029   0.028  1.00  0.00    +0.000 C 
BRANCH  28  29
ATOM     29  C   UNL     1       6.635   1.600   0.106  1.00  0.00    +0.000 C 
ATOM     30  C   UNL     1       7.742   2.361  -0.034  1.00  0.00    +0.000 C 
ATOM     31  C   UNL     1       7.736   3.844  -0.314  1.00  0.00    +0.000 C 
BRANCH  30  32
ATOM     32  C   UNL     1       9.048   1.707   0.093  1.00  0.00    +0.000 C 
ATOM     33  C   UNL     1      10.255   2.289  -0.018  1.00  0.00    +0.000 C 
BRANCH  33  34
ATOM     34  C   UNL     1      11.609   1.602   0.102  1.00  0.00    +0.000 C 
ATOM     35  C   UNL     1      11.694   0.547   1.211  1.00  0.00    +0.000 C 
ATOM     36  C   UNL     1      12.383  -0.600   1.052  1.00  0.00    +0.000 C 
ATOM     37  C   UNL     1      13.175  -0.945  -0.169  1.00  0.00    +0.000 C 
ATOM     38  C   UNL     1      13.421   0.266  -1.072  1.00  0.00    +0.000 C 
ATOM     39  C   UNL     1      12.143   1.108  -1.298  1.00  0.00    +0.000 C 
ATOM     40  C   UNL     1      11.109   0.258  -2.073  1.00  0.00    +0.000 C 
ATOM     41  C   UNL     1      12.514   2.319  -2.182  1.00  0.00    +0.000 C 
ATOM     42  C   UNL     1      11.086   0.875   2.552  1.00  0.00    +0.000 C 
BRANCH  37  43
ATOM     43  O   UNL     1      14.432  -1.462   0.252  1.00  0.00    +0.000 OA
ATOM     44  H   UNL     1      14.830  -0.801   0.843  1.00  0.00    +0.000 HD
ENDBRANCH  37  43
ENDBRANCH  33  34
ENDBRANCH  30  32
ENDBRANCH  28  29
ENDBRANCH  25  27
ENDBRANCH   2  24
TORSDOF 12
