REMARK  Name = SANCDB_00999_minRM1.pdb
AUTHORGENERATED BY OPEN BABEL 2.3.2
REMARK  5 active torsions:
REMARK  status: ('A' for Active; 'I' for Inactive)
REMARK    1  A    between atoms: C_1  and  C_2
REMARK    2  A    between atoms: C_5  and  C_25
REMARK    3  A    between atoms: C_6  and  C_23
REMARK    4  A    between atoms: C_6  and  O_24
REMARK    5  A    between atoms: C_16  and  O_22
REMARK                            x       y       z     vdW  Elec       q    Type
REMARK                         _______ _______ _______ _____ _____    ______ ____
ROOT
ATOM      1  C   UNL     1      -3.580   3.014  -0.842  1.00  0.00    +0.000 C 
ATOM      2  C   UNL     1      -2.175   3.151  -0.347  1.00  0.00    +0.000 C 
ATOM      3  C   UNL     1      -1.241   2.183  -0.246  1.00  0.00    +0.000 C 
ATOM      4  C   UNL     1      -1.396   0.734  -0.701  1.00  0.00    +0.000 C 
ATOM      5  C   UNL     1      -1.717  -0.338   0.391  1.00  0.00    +0.000 C 
ATOM      6  C   UNL     1      -1.762  -1.792  -0.202  1.00  0.00    +0.000 C 
ATOM      7  C   UNL     1      -0.353  -2.322  -0.588  1.00  0.00    +0.000 C 
ATOM      8  O   UNL     1      -0.040  -2.563  -1.750  1.00  0.00    +0.000 OA
ATOM      9  O   UNL     1       0.446  -2.505   0.498  1.00  0.00    +0.000 OA
ATOM     10  C   UNL     1       1.808  -2.940   0.263  1.00  0.00    +0.000 C 
ATOM     11  C   UNL     1       2.627  -1.793  -0.219  1.00  0.00    +0.000 C 
ATOM     12  C   UNL     1       3.418  -1.691  -1.305  1.00  0.00    +0.000 C 
ATOM     13  C   UNL     1       3.739  -0.242  -1.603  1.00  0.00    +0.000 C 
ATOM     14  N   UNL     1       3.391   0.382  -0.343  1.00  0.00    +0.000 NA
ATOM     15  C   UNL     1       2.333  -0.430   0.256  1.00  0.00    +0.000 C 
ATOM     16  C   UNL     1       2.379   0.205   1.638  1.00  0.00    +0.000 C 
ATOM     17  C   UNL     1       2.118   1.670   1.156  1.00  0.00    +0.000 C 
ATOM     18  C   UNL     1       2.946   1.756  -0.180  1.00  0.00    +0.000 C 
ATOM     19  O   UNL     1       0.673   1.666   0.927  1.00  0.00    +0.000 OA
ATOM     20  C   UNL     1       0.105   2.652   0.214  1.00  0.00    +0.000 C 
ATOM     21  O   UNL     1       0.617   3.726  -0.049  1.00  0.00    +0.000 OA
ATOM     22  C   UNL     1      -2.385  -2.830   0.741  1.00  0.00    +0.000 C 
ATOM     23  C   UNL     1      -3.026   0.028   1.111  1.00  0.00    +0.000 C 
ENDROOT
BRANCH  16  24
ATOM     24  O   UNL     1       1.380  -0.268   2.535  1.00  0.00    +0.000 OA
ATOM     25  H   UNL     1       0.626   0.343   2.455  1.00  0.00    +0.000 HD
ENDBRANCH  16  24
BRANCH   6  26
ATOM     26  O   UNL     1      -2.600  -1.765  -1.371  1.00  0.00    +0.000 OA
ATOM     27  H   UNL     1      -2.139  -2.286  -2.061  1.00  0.00    +0.000 HD
ENDBRANCH   6  26
TORSDOF 2
