REMARK  Name = SANCDB_01022_minRM1.pdb
AUTHORGENERATED BY OPEN BABEL 2.3.2
REMARK  9 active torsions:
REMARK  status: ('A' for Active; 'I' for Inactive)
REMARK    1  A    between atoms: C_1  and  C_2
REMARK    2  A    between atoms: C_2  and  C_4
REMARK    3  A    between atoms: C_4  and  C_5
REMARK    4  A    between atoms: C_4  and  O_21
REMARK    5  A    between atoms: C_5  and  C_6
REMARK    6  A    between atoms: C_7  and  O_19
REMARK    7  A    between atoms: C_11  and  O_12
REMARK    8  A    between atoms: O_12  and  C_13
REMARK    9  A    between atoms: O_19  and  C_20
REMARK                            x       y       z     vdW  Elec       q    Type
REMARK                         _______ _______ _______ _____ _____    ______ ____
ROOT
ATOM      1  C   UNL     1      -0.004  -0.485   0.196  1.00  0.00    +0.000 A 
ATOM      2  C   UNL     1      -0.344  -0.657   1.556  1.00  0.00    +0.000 A 
ATOM      3  C   UNL     1      -1.685  -0.659   1.945  1.00  0.00    +0.000 A 
ATOM      4  C   UNL     1      -2.678  -0.454   0.989  1.00  0.00    +0.000 A 
ATOM      5  C   UNL     1      -2.383  -0.258  -0.357  1.00  0.00    +0.000 A 
ATOM      6  C   UNL     1      -1.038  -0.312  -0.751  1.00  0.00    +0.000 A 
ATOM      7  C   UNL     1      -3.487   0.023  -1.268  1.00  0.00    +0.000 A 
ATOM      8  C   UNL     1      -4.744   0.039  -0.815  1.00  0.00    +0.000 A 
ATOM      9  C   UNL     1      -5.076  -0.217   0.596  1.00  0.00    +0.000 A 
ATOM     10  O   UNL     1      -6.240  -0.222   0.977  1.00  0.00    +0.000 OA
ATOM     11  O   UNL     1      -4.010  -0.442   1.455  1.00  0.00    +0.000 OA
ENDROOT
BRANCH   6  12
ATOM     12  O   UNL     1      -0.704  -0.113  -2.071  1.00  0.00    +0.000 OA
ATOM     13  C   UNL     1      -0.754  -1.350  -2.790  1.00  0.00    +0.000 C 
ENDBRANCH   6  12
BRANCH   2  14
ATOM     14  O   UNL     1       0.713  -0.780   2.422  1.00  0.00    +0.000 OA
ATOM     15  C   UNL     1       0.416  -1.065   3.786  1.00  0.00    +0.000 C 
ENDBRANCH   2  14
BRANCH   1  16
ATOM     16  C   UNL     1       1.458  -0.432  -0.235  1.00  0.00    +0.000 C 
BRANCH  16  17
ATOM     17  C   UNL     1       2.050   0.992  -0.123  1.00  0.00    +0.000 C 
BRANCH  17  19
ATOM     18  C   UNL     1       3.727   2.696  -1.001  1.00  0.00    +0.000 C 
ATOM     19  C   UNL     1       3.334   1.244  -0.897  1.00  0.00    +0.000 C 
ATOM     20  C   UNL     1       4.103   0.296  -1.462  1.00  0.00    +0.000 C 
ENDBRANCH  17  19
BRANCH  17  21
ATOM     21  O   UNL     1       2.349   1.316   1.238  1.00  0.00    +0.000 OA
ATOM     22  H   UNL     1       1.786   0.757   1.804  1.00  0.00    +0.000 HD
ENDBRANCH  17  21
ENDBRANCH  16  17
ENDBRANCH   1  16
TORSDOF 6
