REMARK  Name = SANCDB_00993_minRM1.pdb
AUTHORGENERATED BY OPEN BABEL 2.3.2
REMARK  7 active torsions:
REMARK  status: ('A' for Active; 'I' for Inactive)
REMARK    1  A    between atoms: C_2  and  C_3
REMARK    2  A    between atoms: C_2  and  C_11
REMARK    3  A    between atoms: C_3  and  C_4
REMARK    4  A    between atoms: C_7  and  O_10
REMARK    5  A    between atoms: C_11  and  C_13
REMARK    6  A    between atoms: C_13  and  C_14
REMARK    7  A    between atoms: C_17  and  O_20
REMARK                            x       y       z     vdW  Elec       q    Type
REMARK                         _______ _______ _______ _____ _____    ______ ____
ROOT
ATOM      1  C   UNL     1       0.881   1.498  -1.353  1.00  0.00    +0.000 C 
ATOM      2  C   UNL     1       0.608   0.569  -0.419  1.00  0.00    +0.000 C 
ENDROOT
BRANCH   2   3
ATOM      3  C   UNL     1      -0.704   0.568   0.244  1.00  0.00    +0.000 C 
ATOM      4  C   UNL     1      -1.072   1.624   0.992  1.00  0.00    +0.000 C 
BRANCH   3   5
ATOM      5  C   UNL     1      -1.551  -0.672   0.002  1.00  0.00    +0.000 C 
BRANCH   5   6
ATOM      6  C   UNL     1      -3.002  -0.595   0.427  1.00  0.00    +0.000 A 
ATOM      7  C   UNL     1      -3.955   0.003  -0.411  1.00  0.00    +0.000 A 
ATOM      8  C   UNL     1      -5.290   0.087  -0.015  1.00  0.00    +0.000 A 
ATOM      9  C   UNL     1      -5.676  -0.423   1.219  1.00  0.00    +0.000 A 
ATOM     10  C   UNL     1      -4.747  -1.015   2.068  1.00  0.00    +0.000 A 
ATOM     11  C   UNL     1      -3.410  -1.099   1.672  1.00  0.00    +0.000 A 
BRANCH   9  12
ATOM     12  O   UNL     1      -6.991  -0.320   1.566  1.00  0.00    +0.000 OA
ATOM     13  H   UNL     1      -7.110  -0.718   2.443  1.00  0.00    +0.000 HD
ENDBRANCH   9  12
ENDBRANCH   5   6
ENDBRANCH   3   5
ENDBRANCH   2   3
BRANCH   2  14
ATOM     14  C   UNL     1       1.568  -0.518   0.039  1.00  0.00    +0.000 C 
BRANCH  14  15
ATOM     15  C   UNL     1       3.025  -0.330  -0.331  1.00  0.00    +0.000 A 
ATOM     16  C   UNL     1       3.842   0.526   0.423  1.00  0.00    +0.000 A 
ATOM     17  C   UNL     1       5.183   0.712   0.080  1.00  0.00    +0.000 A 
ATOM     18  C   UNL     1       5.706   0.042  -1.021  1.00  0.00    +0.000 A 
ATOM     19  C   UNL     1       4.911  -0.806  -1.782  1.00  0.00    +0.000 A 
ATOM     20  C   UNL     1       3.571  -0.992  -1.440  1.00  0.00    +0.000 A 
BRANCH  18  21
ATOM     21  O   UNL     1       7.009   0.195  -1.393  1.00  0.00    +0.000 OA
ATOM     22  H   UNL     1       7.435   0.812  -0.776  1.00  0.00    +0.000 HD
ENDBRANCH  18  21
ENDBRANCH  14  15
ENDBRANCH   2  14
TORSDOF 7
