REMARK  Name = SANCDB_00808_minRM1.pdb
AUTHORGENERATED BY OPEN BABEL 2.3.2
REMARK  14 active torsions:
REMARK  status: ('A' for Active; 'I' for Inactive)
REMARK    1  A    between atoms: C_1  and  O_2
REMARK    2  A    between atoms: O_2  and  C_3
REMARK    3  A    between atoms: C_3  and  C_5
REMARK    4  A    between atoms: C_5  and  C_6
REMARK    5  A    between atoms: C_7  and  C_8
REMARK    6  A    between atoms: C_7  and  C_16
REMARK    7  A    between atoms: C_13  and  C_14
REMARK    8  A    between atoms: C_13  and  C_15
REMARK    9  A    between atoms: C_17  and  O_18
REMARK   10  A    between atoms: O_18  and  C_19
REMARK   11  A    between atoms: C_19  and  C_21
REMARK   12  A    between atoms: C_22  and  O_23
REMARK   13  A    between atoms: C_24  and  C_36
REMARK   14  A    between atoms: C_28  and  C_29
REMARK                            x       y       z     vdW  Elec       q    Type
REMARK                         _______ _______ _______ _____ _____    ______ ____
ROOT
ATOM      1  C   UNL     1      -0.376  -0.373   0.944  1.00  0.00    +0.000 C 
ATOM      2  C   UNL     1       0.466  -1.108  -0.159  1.00  0.00    +0.000 C 
ATOM      3  C   UNL     1       1.780  -0.393  -0.575  1.00  0.00    +0.000 C 
ATOM      4  C   UNL     1       2.657  -0.001   0.641  1.00  0.00    +0.000 C 
ATOM      5  C   UNL     1       1.818   0.573   1.767  1.00  0.00    +0.000 C 
ATOM      6  C   UNL     1       2.387   1.645   2.335  1.00  0.00    +0.000 C 
ATOM      7  C   UNL     1       3.681   1.990   1.670  1.00  0.00    +0.000 C 
ATOM      8  C   UNL     1       3.556   1.241   0.329  1.00  0.00    +0.000 C 
ATOM      9  C   UNL     1       0.558  -0.037   2.112  1.00  0.00    +0.000 C 
ATOM     10  C   UNL     1       0.274  -0.375   3.381  1.00  0.00    +0.000 C 
ATOM     11  C   UNL     1       3.445  -1.210   1.196  1.00  0.00    +0.000 C 
ENDROOT
BRANCH   1  13
ATOM     12  C   UNL     1      -2.688   0.258  -0.220  1.00  0.00    +0.000 C 
ATOM     13  C   UNL     1      -1.365   0.832   0.502  1.00  0.00    +0.000 C 
ATOM     14  C   UNL     1      -1.769   1.666   1.751  1.00  0.00    +0.000 C 
ATOM     15  C   UNL     1      -0.602   1.800  -0.387  1.00  0.00    +0.000 C 
ATOM     16  C   UNL     1      -0.906   2.139  -1.643  1.00  0.00    +0.000 C 
ATOM     17  C   UNL     1      -2.138   1.639  -2.277  1.00  0.00    +0.000 C 
ATOM     18  O   UNL     1      -2.222   1.694  -3.502  1.00  0.00    +0.000 OA
ATOM     19  C   UNL     1      -3.275   1.177  -1.360  1.00  0.00    +0.000 C 
ATOM     20  C   UNL     1      -3.993   2.438  -0.848  1.00  0.00    +0.000 C 
ATOM     21  C   UNL     1      -4.282   0.389  -2.235  1.00  0.00    +0.000 C 
BRANCH  12  22
ATOM     22  C   UNL     1      -3.807  -0.206   0.760  1.00  0.00    +0.000 C 
BRANCH  22  23
ATOM     23  C   UNL     1      -3.480  -1.469   1.518  1.00  0.00    +0.000 C 
ATOM     24  O   UNL     1      -3.276  -1.511   2.723  1.00  0.00    +0.000 OA
BRANCH  23  26
ATOM     25  C   UNL     1      -3.064  -3.762   1.286  1.00  0.00    +0.000 C 
ATOM     26  O   UNL     1      -3.434  -2.528   0.667  1.00  0.00    +0.000 OA
ENDBRANCH  23  26
ENDBRANCH  22  23
ENDBRANCH  12  22
ENDBRANCH   1  13
BRANCH   8  27
ATOM     27  C   UNL     1       4.856   0.990  -0.371  1.00  0.00    +0.000 A 
ATOM     28  C   UNL     1       6.045   0.522   0.154  1.00  0.00    +0.000 A 
ATOM     29  O   UNL     1       7.001   0.435  -0.803  1.00  0.00    +0.000 OA
ATOM     30  C   UNL     1       6.440   0.860  -1.961  1.00  0.00    +0.000 A 
ATOM     31  C   UNL     1       5.129   1.218  -1.754  1.00  0.00    +0.000 A 
ENDBRANCH   8  27
BRANCH   3  32
ATOM     32  O   UNL     1       2.494  -1.268  -1.468  1.00  0.00    +0.000 OA
ATOM     33  H   UNL     1       3.342  -0.850  -1.697  1.00  0.00    +0.000 HD
ENDBRANCH   3  32
BRANCH   2  34
ATOM     34  O   UNL     1      -0.295  -1.327  -1.366  1.00  0.00    +0.000 OA
BRANCH  34  35
ATOM     35  C   UNL     1      -0.657  -2.612  -1.634  1.00  0.00    +0.000 C 
ATOM     36  O   UNL     1      -0.556  -3.561  -0.869  1.00  0.00    +0.000 OA
ATOM     37  C   UNL     1      -1.270  -2.697  -2.999  1.00  0.00    +0.000 C 
ENDBRANCH  34  35
ENDBRANCH   2  34
TORSDOF 8
