REMARK  Name = SANCDB_00982_minRM1.pdb
AUTHORGENERATED BY OPEN BABEL 2.3.2
REMARK  8 active torsions:
REMARK  status: ('A' for Active; 'I' for Inactive)
REMARK    1  A    between atoms: C_1  and  O_2
REMARK    2  A    between atoms: O_2  and  C_3
REMARK    3  A    between atoms: C_6  and  C_9
REMARK    4  A    between atoms: C_14  and  O_24
REMARK    5  A    between atoms: C_15  and  O_22
REMARK    6  A    between atoms: C_16  and  O_20
REMARK    7  A    between atoms: O_20  and  C_21
REMARK    8  A    between atoms: O_22  and  C_23
REMARK                            x       y       z     vdW  Elec       q    Type
REMARK                         _______ _______ _______ _____ _____    ______ ____
ROOT
ATOM      1  C   UNL     1       0.882  -0.555   0.908  1.00  0.00    +0.000 A 
ATOM      2  C   UNL     1       0.373  -0.865   2.110  1.00  0.00    +0.000 A 
ATOM      3  C   UNL     1      -1.086  -0.893   2.279  1.00  0.00    +0.000 A 
ATOM      4  O   UNL     1      -1.601  -1.172   3.356  1.00  0.00    +0.000 OA
ATOM      5  C   UNL     1      -1.905  -0.574   1.102  1.00  0.00    +0.000 A 
ATOM      6  C   UNL     1      -3.301  -0.576   1.156  1.00  0.00    +0.000 A 
ATOM      7  C   UNL     1      -4.032  -0.260   0.003  1.00  0.00    +0.000 A 
ATOM      8  C   UNL     1      -3.379   0.034  -1.208  1.00  0.00    +0.000 A 
ATOM      9  C   UNL     1      -1.982   0.039  -1.242  1.00  0.00    +0.000 A 
ATOM     10  C   UNL     1      -1.251  -0.265  -0.088  1.00  0.00    +0.000 A 
ATOM     11  O   UNL     1       0.118  -0.239  -0.203  1.00  0.00    +0.000 OA
ENDROOT
BRANCH   1  15
ATOM     12  C   UNL     1       5.117  -0.366   0.186  1.00  0.00    +0.000 A 
ATOM     13  C   UNL     1       4.269   0.622  -0.310  1.00  0.00    +0.000 A 
ATOM     14  C   UNL     1       2.890   0.552  -0.069  1.00  0.00    +0.000 A 
ATOM     15  C   UNL     1       2.338  -0.499   0.676  1.00  0.00    +0.000 A 
ATOM     16  C   UNL     1       3.198  -1.493   1.162  1.00  0.00    +0.000 A 
ATOM     17  C   UNL     1       4.574  -1.422   0.920  1.00  0.00    +0.000 A 
BRANCH  12  19
ATOM     18  C   UNL     1       7.077   0.635  -0.713  1.00  0.00    +0.000 C 
ATOM     19  O   UNL     1       6.473  -0.420   0.025  1.00  0.00    +0.000 OA
ENDBRANCH  12  19
ENDBRANCH   1  15
BRANCH   8  20
ATOM     20  O   UNL     1      -4.187   0.318  -2.278  1.00  0.00    +0.000 OA
ATOM     21  C   UNL     1      -3.570   0.434  -3.553  1.00  0.00    +0.000 C 
ENDBRANCH   8  20
BRANCH   7  22
ATOM     22  O   UNL     1      -5.406  -0.316   0.027  1.00  0.00    +0.000 OA
ATOM     23  C   UNL     1      -5.938   0.922   0.496  1.00  0.00    +0.000 C 
ENDBRANCH   7  22
BRANCH   6  24
ATOM     24  O   UNL     1      -3.985  -0.876   2.307  1.00  0.00    +0.000 OA
ATOM     25  H   UNL     1      -3.336  -1.097   3.011  1.00  0.00    +0.000 HD
ENDBRANCH   6  24
TORSDOF 5
