REMARK  Name = /srv/my_project/app/compsite/backup/Dave/CORINA_stuff/newPDBs/SANC00332.pdb
AUTHORGENERATED BY OPEN BABEL 2.3.2
REMARK  4 active torsions:
REMARK  status: ('A' for Active; 'I' for Inactive)
REMARK    1  A    between atoms: C_1  and  C_2
REMARK    2  A    between atoms: C_4  and  C_5
REMARK    3  A    between atoms: C_5  and  O_7
REMARK    4  A    between atoms: C_10  and  C_11
REMARK                            x       y       z     vdW  Elec       q    Type
REMARK                         _______ _______ _______ _____ _____    ______ ____
ROOT
ATOM      1  C   UNL     1      -3.304  -1.942   0.526  1.00  0.00    +0.000 C 
ATOM      2  C   UNL     1      -2.065  -1.118   0.325  1.00  0.00    +0.000 A 
ATOM      3  C   UNL     1      -1.951   0.152   0.930  1.00  0.00    +0.000 A 
ATOM      4  C   UNL     1      -0.814   0.963   0.737  1.00  0.00    +0.000 A 
ATOM      5  C   UNL     1       0.204   0.486  -0.085  1.00  0.00    +0.000 A 
ATOM      6  C   UNL     1       1.508   1.135  -0.445  1.00  0.00    +0.000 C 
ATOM      7  C   UNL     1       2.179   0.160  -1.438  1.00  0.00    +0.000 C 
ATOM      8  C   UNL     1       3.575  -0.253  -1.003  1.00  0.00    +0.000 C 
ATOM      9  C   UNL     1       1.248  -1.032  -1.490  1.00  0.00    +0.000 C 
ATOM     10  O   UNL     1       1.423  -2.068  -2.107  1.00  0.00    +0.000 OA
ATOM     11  C   UNL     1       0.066  -0.762  -0.683  1.00  0.00    +0.000 A 
ATOM     12  C   UNL     1      -1.039  -1.576  -0.506  1.00  0.00    +0.000 A 
ENDROOT
BRANCH   4  13
ATOM     13  C   UNL     1      -0.697   2.292   1.391  1.00  0.00    +0.000 C 
ATOM     14  O   UNL     1       0.241   3.062   1.302  1.00  0.00    +0.000 OA
BRANCH  13  15
ATOM     15  O   UNL     1      -1.774   2.602   2.135  1.00  0.00    +0.000 OA
ATOM     16  H   UNL     1      -1.563   3.487   2.500  1.00  0.00    +0.000 HD
ENDBRANCH  13  15
ENDBRANCH   4  13
TORSDOF 2
