REMARK  Name = SANCDB_01035_minRM1.pdb
AUTHORGENERATED BY OPEN BABEL 2.3.2
REMARK  6 active torsions:
REMARK  status: ('A' for Active; 'I' for Inactive)
REMARK    1  A    between atoms: C_1  and  N_2
REMARK    2  A    between atoms: C_5  and  C_12
REMARK    3  A    between atoms: C_14  and  O_20
REMARK    4  A    between atoms: C_15  and  O_18
REMARK    5  A    between atoms: O_18  and  C_19
REMARK    6  A    between atoms: O_20  and  C_21
REMARK                            x       y       z     vdW  Elec       q    Type
REMARK                         _______ _______ _______ _____ _____    ______ ____
ROOT
ATOM      1  C   UNL     1      -3.878   1.290   0.976  1.00  0.00    +0.000 C 
ATOM      2  N   UNL     1      -2.465   1.555   0.732  1.00  0.00    +0.000 NA
ATOM      3  C   UNL     1      -2.201   1.859  -0.679  1.00  0.00    +0.000 C 
ATOM      4  C   UNL     1      -1.890   0.506  -1.290  1.00  0.00    +0.000 C 
ATOM      5  C   UNL     1      -1.000  -0.191  -0.230  1.00  0.00    +0.000 C 
ATOM      6  C   UNL     1      -1.501   0.484   1.102  1.00  0.00    +0.000 C 
ATOM      7  C   UNL     1      -1.908  -0.516   2.190  1.00  0.00    +0.000 C 
ATOM      8  C   UNL     1      -2.835  -1.594   1.687  1.00  0.00    +0.000 C 
ATOM      9  O   UNL     1      -3.736  -2.041   2.398  1.00  0.00    +0.000 OA
ATOM     10  C   UNL     1      -2.617  -2.134   0.294  1.00  0.00    +0.000 C 
ATOM     11  C   UNL     1      -1.262  -1.722  -0.268  1.00  0.00    +0.000 C 
ENDROOT
BRANCH   5  12
ATOM     12  C   UNL     1       0.523   0.047  -0.403  1.00  0.00    +0.000 A 
ATOM     13  C   UNL     1       1.421  -0.435   0.578  1.00  0.00    +0.000 A 
ATOM     14  C   UNL     1       2.809  -0.253   0.476  1.00  0.00    +0.000 A 
ATOM     15  C   UNL     1       3.338   0.427  -0.632  1.00  0.00    +0.000 A 
ATOM     16  C   UNL     1       2.468   0.913  -1.607  1.00  0.00    +0.000 A 
ATOM     17  C   UNL     1       1.083   0.727  -1.492  1.00  0.00    +0.000 A 
BRANCH  15  18
ATOM     18  O   UNL     1       4.703   0.564  -0.666  1.00  0.00    +0.000 OA
ATOM     19  C   UNL     1       5.268   1.262  -1.766  1.00  0.00    +0.000 C 
ENDBRANCH  15  18
BRANCH  14  20
ATOM     20  O   UNL     1       3.721  -0.705   1.398  1.00  0.00    +0.000 OA
ATOM     21  C   UNL     1       3.226  -1.329   2.574  1.00  0.00    +0.000 C 
ENDBRANCH  14  20
ENDBRANCH   5  12
TORSDOF 3
