REMARK  Name = /srv/my_project/app/compsite/backup/Dave/CORINA_stuff/newPDBs/SANC00587.pdb
AUTHORGENERATED BY OPEN BABEL 2.3.2
REMARK  14 active torsions:
REMARK  status: ('A' for Active; 'I' for Inactive)
REMARK    1  A    between atoms: C_7  and  C_9
REMARK    2  A    between atoms: C_9  and  C_10
REMARK    3  A    between atoms: C_10  and  C_11
REMARK    4  A    between atoms: C_11  and  O_12
REMARK    5  A    between atoms: C_13  and  C_15
REMARK    6  A    between atoms: C_21  and  C_22
REMARK    7  A    between atoms: C_21  and  C_23
REMARK    8  A    between atoms: C_28  and  C_29
REMARK    9  A    between atoms: C_30  and  C_31
REMARK   10  A    between atoms: C_34  and  O_36
REMARK   11  A    between atoms: O_36  and  C_37
REMARK   12  A    between atoms: C_37  and  C_38
REMARK   13  A    between atoms: C_40  and  C_41
REMARK   14  A    between atoms: C_40  and  C_42
REMARK                            x       y       z     vdW  Elec       q    Type
REMARK                         _______ _______ _______ _____ _____    ______ ____
ROOT
ATOM      1  C   UNL     1       0.110   1.640   0.618  1.00  0.00    +0.000 C 
ENDROOT
BRANCH   1   7
ATOM      2  C   UNL     1       3.725   0.947  -0.943  1.00  0.00    +0.000 C 
ATOM      3  C   UNL     1       3.633   1.862  -2.173  1.00  0.00    +0.000 C 
ATOM      4  C   UNL     1       2.757   3.079  -1.926  1.00  0.00    +0.000 C 
ATOM      5  C   UNL     1       1.393   2.665  -1.425  1.00  0.00    +0.000 C 
ATOM      6  C   UNL     1       0.291   3.092  -2.063  1.00  0.00    +0.000 C 
ATOM      7  C   UNL     1       1.448   1.789  -0.171  1.00  0.00    +0.000 C 
ATOM      8  C   UNL     1       2.317   0.483  -0.424  1.00  0.00    +0.000 C 
ATOM      9  C   UNL     1       1.676  -0.464  -1.472  1.00  0.00    +0.000 C 
ATOM     10  C   UNL     1       2.464  -0.289   0.922  1.00  0.00    +0.000 C 
ATOM     11  C   UNL     1       3.498  -1.417   1.000  1.00  0.00    +0.000 C 
ATOM     12  C   UNL     1       4.947  -0.905   0.972  1.00  0.00    +0.000 C 
ATOM     13  C   UNL     1       5.490  -0.691  -0.469  1.00  0.00    +0.000 C 
ATOM     14  C   UNL     1       6.708   0.248  -0.474  1.00  0.00    +0.000 C 
ATOM     15  C   UNL     1       5.931  -2.022  -1.110  1.00  0.00    +0.000 C 
ATOM     16  O   UNL     1       4.503  -0.172  -1.369  1.00  0.00    +0.000 OA
BRANCH  12  17
ATOM     17  O   UNL     1       5.753  -1.878   1.682  1.00  0.00    +0.000 OA
BRANCH  17  18
ATOM     18  C   UNL     1       6.687  -1.397   2.545  1.00  0.00    +0.000 C 
ATOM     19  C   UNL     1       7.419  -2.535   3.188  1.00  0.00    +0.000 C 
ATOM     20  O   UNL     1       6.913  -0.217   2.768  1.00  0.00    +0.000 OA
ENDBRANCH  17  18
ENDBRANCH  12  17
ENDBRANCH   1   7
BRANCH   1  21
ATOM     21  C   UNL     1      -0.941   0.656   0.092  1.00  0.00    +0.000 C 
BRANCH  21  22
ATOM     22  C   UNL     1      -2.399   0.793   0.662  1.00  0.00    +0.000 C 
ATOM     23  C   UNL     1      -2.422   0.497   2.212  1.00  0.00    +0.000 C 
ATOM     24  C   UNL     1      -2.125   1.731   3.087  1.00  0.00    +0.000 C 
ATOM     25  C   UNL     1      -3.756  -0.102   2.709  1.00  0.00    +0.000 C 
ATOM     26  C   UNL     1      -4.939   0.420   1.920  1.00  0.00    +0.000 C 
ATOM     27  C   UNL     1      -4.868   0.056   0.430  1.00  0.00    +0.000 C 
ATOM     28  O   UNL     1      -5.650  -1.135   0.278  1.00  0.00    +0.000 OA
ATOM     29  C   UNL     1      -6.301  -1.369  -0.968  1.00  0.00    +0.000 C 
ATOM     30  C   UNL     1      -6.794  -2.824  -0.873  1.00  0.00    +0.000 C 
ATOM     31  C   UNL     1      -7.540  -0.471  -1.095  1.00  0.00    +0.000 C 
ATOM     32  C   UNL     1      -5.415  -1.236  -2.236  1.00  0.00    +0.000 C 
ATOM     33  O   UNL     1      -5.274  -2.150  -3.053  1.00  0.00    +0.000 OA
ATOM     34  C   UNL     1      -4.714   0.080  -2.463  1.00  0.00    +0.000 C 
ATOM     35  C   UNL     1      -3.418   0.239  -1.673  1.00  0.00    +0.000 C 
ATOM     36  C   UNL     1      -3.419  -0.141  -0.142  1.00  0.00    +0.000 C 
ATOM     37  C   UNL     1      -2.954  -1.628  -0.063  1.00  0.00    +0.000 C 
BRANCH  22  38
ATOM     38  O   UNL     1      -2.859   2.144   0.477  1.00  0.00    +0.000 OA
ATOM     39  H   UNL     1      -2.340   2.565  -0.227  1.00  0.00    +0.000 HD
ENDBRANCH  22  38
ENDBRANCH  21  22
ENDBRANCH   1  21
TORSDOF 6
