REMARK  Name = /srv/my_project/app/compsite/backup/Dave/CORINA_stuff/newPDBs/SANC00253.pdb
AUTHORGENERATED BY OPEN BABEL 2.3.2
REMARK  6 active torsions:
REMARK  status: ('A' for Active; 'I' for Inactive)
REMARK    1  A    between atoms: C_1  and  O_2
REMARK    2  A    between atoms: O_2  and  C_3
REMARK    3  A    between atoms: C_4  and  O_5
REMARK    4  A    between atoms: C_7  and  O_8
REMARK    5  A    between atoms: C_13  and  C_14
REMARK    6  A    between atoms: C_17  and  O_18
REMARK                            x       y       z     vdW  Elec       q    Type
REMARK                         _______ _______ _______ _____ _____    ______ ____
ROOT
ATOM      1  C   UNL     1      -3.515  -0.473  -0.656  1.00  0.00    +0.000 A 
ATOM      2  C   UNL     1      -3.757  -1.853  -0.714  1.00  0.00    +0.000 A 
ATOM      3  C   UNL     1      -2.791  -2.780  -0.349  1.00  0.00    +0.000 A 
ATOM      4  C   UNL     1      -1.554  -2.326   0.094  1.00  0.00    +0.000 A 
ATOM      5  C   UNL     1      -1.297  -0.950   0.193  1.00  0.00    +0.000 A 
ATOM      6  C   UNL     1       0.025  -0.467   0.647  1.00  0.00    +0.000 C 
ATOM      7  O   UNL     1       0.898  -1.270   0.954  1.00  0.00    +0.000 OA
ATOM      8  C   UNL     1       0.172   1.008   0.747  1.00  0.00    +0.000 C 
ATOM      9  C   UNL     1       1.339   1.671   0.644  1.00  0.00    +0.000 C 
ATOM     10  C   UNL     1      -1.139   1.688   0.973  1.00  0.00    +0.000 C 
ATOM     11  O   UNL     1      -2.082   1.335  -0.042  1.00  0.00    +0.000 OA
ATOM     12  C   UNL     1      -2.287  -0.017  -0.159  1.00  0.00    +0.000 A 
ENDROOT
BRANCH   9  13
ATOM     13  C   UNL     1       2.656   1.090   0.375  1.00  0.00    +0.000 A 
ATOM     14  C   UNL     1       3.197   1.173  -0.914  1.00  0.00    +0.000 A 
ATOM     15  C   UNL     1       4.461   0.643  -1.179  1.00  0.00    +0.000 A 
ATOM     16  C   UNL     1       5.179   0.032  -0.159  1.00  0.00    +0.000 A 
ATOM     17  C   UNL     1       4.657  -0.057   1.127  1.00  0.00    +0.000 A 
ATOM     18  C   UNL     1       3.394   0.477   1.394  1.00  0.00    +0.000 A 
BRANCH  16  19
ATOM     19  O   UNL     1       6.407  -0.476  -0.464  1.00  0.00    +0.000 OA
ATOM     20  H   UNL     1       6.759  -0.921   0.325  1.00  0.00    +0.000 HD
ENDBRANCH  16  19
ENDBRANCH   9  13
BRANCH   1  22
ATOM     21  C   UNL     1      -4.225   1.466  -1.804  1.00  0.00    +0.000 C 
ATOM     22  O   UNL     1      -4.574   0.309  -1.048  1.00  0.00    +0.000 OA
ENDBRANCH   1  22
BRANCH   2  23
ATOM     23  O   UNL     1      -4.968  -2.320  -1.149  1.00  0.00    +0.000 OA
ATOM     24  H   UNL     1      -5.509  -1.524  -1.319  1.00  0.00    +0.000 HD
ENDBRANCH   2  23
BRANCH   4  25
ATOM     25  O   UNL     1      -0.633  -3.285   0.421  1.00  0.00    +0.000 OA
ATOM     26  H   UNL     1       0.201  -2.835   0.687  1.00  0.00    +0.000 HD
ENDBRANCH   4  25
TORSDOF 5
