REMARK  Name = /srv/my_project/app/compsite/backup/Dave/CORINA_stuff/newPDBs/SANC00633.pdb
AUTHORGENERATED BY OPEN BABEL 2.3.2
REMARK  4 active torsions:
REMARK  status: ('A' for Active; 'I' for Inactive)
REMARK    1  A    between atoms: C_1  and  C_2
REMARK    2  A    between atoms: C_6  and  C_17
REMARK    3  A    between atoms: C_12  and  C_13
REMARK    4  A    between atoms: C_12  and  C_14
REMARK                            x       y       z     vdW  Elec       q    Type
REMARK                         _______ _______ _______ _____ _____    ______ ____
ROOT
ATOM      1  C   UNL     1      -2.270  -2.030   0.507  1.00  0.00    +0.000 C 
ATOM      2  C   UNL     1      -1.181  -1.422   1.349  1.00  0.00    +0.000 C 
ATOM      3  C   UNL     1      -1.337  -0.304   2.086  1.00  0.00    +0.000 C 
ATOM      4  C   UNL     1      -2.457   0.705   1.954  1.00  0.00    +0.000 C 
ATOM      5  C   UNL     1      -2.328   1.567   0.666  1.00  0.00    +0.000 C 
ATOM      6  C   UNL     1      -0.873   1.866   0.324  1.00  0.00    +0.000 C 
ATOM      7  C   UNL     1      -0.223   1.032  -0.519  1.00  0.00    +0.000 C 
ATOM      8  C   UNL     1       1.224   0.797  -0.591  1.00  0.00    +0.000 C 
ATOM      9  C   UNL     1       1.701  -0.624  -0.267  1.00  0.00    +0.000 C 
ATOM     10  C   UNL     1       1.939  -0.016  -1.651  1.00  0.00    +0.000 C 
ATOM     11  C   UNL     1       3.365   0.377  -1.972  1.00  0.00    +0.000 C 
ATOM     12  C   UNL     1       1.191  -0.494  -2.873  1.00  0.00    +0.000 C 
ATOM     13  C   UNL     1       0.865  -1.880  -0.126  1.00  0.00    +0.000 C 
ATOM     14  C   UNL     1       0.189  -2.075   1.250  1.00  0.00    +0.000 C 
ATOM     15  C   UNL     1      -0.230   2.950   1.143  1.00  0.00    +0.000 C 
ENDROOT
TORSDOF 0
