REMARK  Name = /srv/my_project/app/compsite/backup/Dave/CORINA_stuff/newPDBs/SANC00174.pdb
AUTHORGENERATED BY OPEN BABEL 2.3.2
REMARK  12 active torsions:
REMARK  status: ('A' for Active; 'I' for Inactive)
REMARK    1  A    between atoms: C_5  and  C_6
REMARK    2  A    between atoms: C_10  and  C_11
REMARK    3  A    between atoms: C_11  and  O_13
REMARK    4  A    between atoms: C_16  and  C_17
REMARK    5  A    between atoms: C_16  and  C_18
REMARK    6  A    between atoms: C_22  and  C_23
REMARK    7  A    between atoms: C_28  and  C_29
REMARK    8  A    between atoms: C_32  and  O_34
REMARK    9  A    between atoms: O_34  and  C_35
REMARK   10  A    between atoms: C_35  and  C_36
REMARK   11  A    between atoms: C_38  and  C_39
REMARK   12  A    between atoms: C_38  and  C_40
REMARK                            x       y       z     vdW  Elec       q    Type
REMARK                         _______ _______ _______ _____ _____    ______ ____
ROOT
ATOM      1  C   UNL     1       3.096  -0.338   1.181  1.00  0.00    +0.000 C 
ATOM      2  C   UNL     1       2.429  -1.591   1.775  1.00  0.00    +0.000 C 
ATOM      3  C   UNL     1       0.910  -1.439   1.870  1.00  0.00    +0.000 C 
ATOM      4  C   UNL     1       0.189  -1.085   0.533  1.00  0.00    +0.000 C 
ATOM      5  C   UNL     1       0.144  -2.359  -0.345  1.00  0.00    +0.000 C 
ATOM      6  C   UNL     1      -1.293  -0.665   0.799  1.00  0.00    +0.000 C 
ATOM      7  C   UNL     1      -1.994  -1.130   1.852  1.00  0.00    +0.000 C 
ATOM      8  C   UNL     1      -3.411  -0.738   2.114  1.00  0.00    +0.000 C 
ATOM      9  C   UNL     1      -4.295  -0.691   0.838  1.00  0.00    +0.000 C 
ATOM     10  C   UNL     1      -5.520   0.186   1.183  1.00  0.00    +0.000 C 
ATOM     11  C   UNL     1      -6.365   0.591  -0.015  1.00  0.00    +0.000 C 
ATOM     12  C   UNL     1      -5.555   1.348  -1.072  1.00  0.00    +0.000 C 
ATOM     13  C   UNL     1      -5.163   2.745  -0.558  1.00  0.00    +0.000 C 
ATOM     14  C   UNL     1      -6.453   1.567  -2.311  1.00  0.00    +0.000 C 
ATOM     15  C   UNL     1      -4.317   0.531  -1.504  1.00  0.00    +0.000 C 
ATOM     16  C   UNL     1      -3.484  -0.241  -0.436  1.00  0.00    +0.000 C 
ATOM     17  C   UNL     1      -2.006   0.295  -0.181  1.00  0.00    +0.000 C 
ATOM     18  C   UNL     1      -2.019   1.727   0.393  1.00  0.00    +0.000 C 
ATOM     19  C   UNL     1      -1.232   0.314  -1.526  1.00  0.00    +0.000 C 
ATOM     20  C   UNL     1       0.262   0.622  -1.416  1.00  0.00    +0.000 C 
ATOM     21  C   UNL     1       0.946   0.117  -0.124  1.00  0.00    +0.000 C 
ATOM     22  C   UNL     1       2.530  -0.007  -0.242  1.00  0.00    +0.000 C 
ATOM     23  C   UNL     1       2.930  -1.077  -1.288  1.00  0.00    +0.000 C 
ATOM     24  C   UNL     1       3.111   1.371  -0.711  1.00  0.00    +0.000 C 
ATOM     25  C   UNL     1       4.330   1.875   0.070  1.00  0.00    +0.000 C 
ATOM     26  C   UNL     1       5.327   0.770   0.412  1.00  0.00    +0.000 C 
ATOM     27  C   UNL     1       4.672  -0.327   1.320  1.00  0.00    +0.000 C 
ATOM     28  C   UNL     1       5.007   0.049   2.793  1.00  0.00    +0.000 C 
ATOM     29  C   UNL     1       5.320  -1.707   1.073  1.00  0.00    +0.000 C 
ENDROOT
BRANCH   9  30
ATOM     30  C   UNL     1      -4.834  -2.122   0.625  1.00  0.00    +0.000 C 
ATOM     31  O   UNL     1      -4.902  -3.017   1.454  1.00  0.00    +0.000 OA
BRANCH  30  32
ATOM     32  O   UNL     1      -5.336  -2.346  -0.606  1.00  0.00    +0.000 OA
ATOM     33  H   UNL     1      -5.650  -3.273  -0.561  1.00  0.00    +0.000 HD
ENDBRANCH  30  32
ENDBRANCH   9  30
BRANCH  26  34
ATOM     34  O   UNL     1       5.830   0.192  -0.810  1.00  0.00    +0.000 OA
BRANCH  34  35
ATOM     35  C   UNL     1       6.852   0.845  -1.426  1.00  0.00    +0.000 C 
ATOM     36  C   UNL     1       7.241   0.113  -2.674  1.00  0.00    +0.000 C 
ATOM     37  O   UNL     1       7.381   1.875  -1.036  1.00  0.00    +0.000 OA
ENDBRANCH  34  35
ENDBRANCH  26  34
TORSDOF 4
