REMARK  Name = SANCDB_00819_minRM1.pdb
AUTHORGENERATED BY OPEN BABEL 2.3.2
REMARK  11 active torsions:
REMARK  status: ('A' for Active; 'I' for Inactive)
REMARK    1  A    between atoms: C_8  and  C_9
REMARK    2  A    between atoms: C_10  and  C_11
REMARK    3  A    between atoms: C_18  and  O_19
REMARK    4  A    between atoms: C_22  and  C_23
REMARK    5  A    between atoms: C_26  and  O_27
REMARK    6  A    between atoms: O_27  and  C_28
REMARK    7  A    between atoms: C_30  and  C_31
REMARK    8  A    between atoms: C_31  and  O_32
REMARK    9  A    between atoms: C_33  and  O_34
REMARK   10  A    between atoms: C_35  and  O_36
REMARK   11  A    between atoms: C_37  and  O_38
REMARK                            x       y       z     vdW  Elec       q    Type
REMARK                         _______ _______ _______ _____ _____    ______ ____
ROOT
ATOM      1  C   UNL     1      -0.886  -1.022   0.052  1.00  0.00    +0.000 C 
ATOM      2  C   UNL     1      -0.480  -1.349  -1.390  1.00  0.00    +0.000 C 
ATOM      3  C   UNL     1       0.996  -1.762  -1.472  1.00  0.00    +0.000 C 
ATOM      4  C   UNL     1       1.864  -1.136  -0.360  1.00  0.00    +0.000 C 
ATOM      5  C   UNL     1       1.353   0.284  -0.042  1.00  0.00    +0.000 C 
ATOM      6  C   UNL     1       2.382   1.142   0.720  1.00  0.00    +0.000 C 
ATOM      7  C   UNL     1       3.451   0.309   1.426  1.00  0.00    +0.000 C 
ATOM      8  C   UNL     1       4.269  -0.586   0.457  1.00  0.00    +0.000 C 
ATOM      9  C   UNL     1       4.894  -1.722   1.291  1.00  0.00    +0.000 C 
ATOM     10  C   UNL     1       5.331   0.267  -0.334  1.00  0.00    +0.000 C 
ATOM     11  C   UNL     1       5.314  -0.304  -1.767  1.00  0.00    +0.000 C 
ATOM     12  C   UNL     1       3.822  -0.546  -1.980  1.00  0.00    +0.000 C 
ATOM     13  C   UNL     1       3.371  -1.212  -0.666  1.00  0.00    +0.000 C 
ATOM     14  C   UNL     1      -0.099   0.227   0.598  1.00  0.00    +0.000 C 
ATOM     15  C   UNL     1      -0.046   0.089   2.140  1.00  0.00    +0.000 C 
ATOM     16  C   UNL     1      -0.817   1.558   0.231  1.00  0.00    +0.000 C 
ATOM     17  C   UNL     1      -2.319   1.558   0.486  1.00  0.00    +0.000 C 
ATOM     18  C   UNL     1      -2.995   0.411  -0.258  1.00  0.00    +0.000 C 
ATOM     19  C   UNL     1      -2.411  -0.918   0.208  1.00  0.00    +0.000 C 
ENDROOT
BRANCH  10  20
ATOM     20  C   UNL     1       6.676   0.550   0.315  1.00  0.00    +0.000 A 
ATOM     21  C   UNL     1       7.735  -0.430   0.342  1.00  0.00    +0.000 A 
ATOM     22  C   UNL     1       8.917  -0.154   0.904  1.00  0.00    +0.000 A 
ATOM     23  C   UNL     1       9.182   1.160   1.512  1.00  0.00    +0.000 A 
ATOM     24  O   UNL     1      10.270   1.401   2.023  1.00  0.00    +0.000 OA
ATOM     25  O   UNL     1       8.167   2.077   1.474  1.00  0.00    +0.000 OA
ATOM     26  C   UNL     1       6.945   1.741   0.871  1.00  0.00    +0.000 A 
ENDBRANCH  10  20
BRANCH  11  27
ATOM     27  O   UNL     1       6.002  -1.543  -1.885  1.00  0.00    +0.000 OA
ATOM     28  H   UNL     1       5.905  -1.844  -2.805  1.00  0.00    +0.000 HD
ENDBRANCH  11  27
BRANCH  18  29
ATOM     29  O   UNL     1      -4.392   0.388   0.050  1.00  0.00    +0.000 OA
BRANCH  29  30
ATOM     30  C   UNL     1      -5.187   1.229  -0.793  1.00  0.00    +0.000 C 
ATOM     31  O   UNL     1      -6.260   1.728   0.013  1.00  0.00    +0.000 OA
ATOM     32  C   UNL     1      -7.492   1.002  -0.050  1.00  0.00    +0.000 C 
ATOM     33  C   UNL     1      -7.291  -0.496  -0.323  1.00  0.00    +0.000 C 
ATOM     34  C   UNL     1      -6.628  -0.679  -1.698  1.00  0.00    +0.000 C 
ATOM     35  C   UNL     1      -5.644   0.452  -2.050  1.00  0.00    +0.000 C 
BRANCH  33  36
ATOM     36  O   UNL     1      -6.474  -1.134   0.677  1.00  0.00    +0.000 OA
ATOM     37  H   UNL     1      -5.699  -0.550   0.836  1.00  0.00    +0.000 HD
ENDBRANCH  33  36
BRANCH  34  38
ATOM     38  O   UNL     1      -5.966  -1.951  -1.759  1.00  0.00    +0.000 OA
ATOM     39  H   UNL     1      -5.889  -2.251  -0.827  1.00  0.00    +0.000 HD
ENDBRANCH  34  38
BRANCH  35  40
ATOM     40  O   UNL     1      -6.266   1.359  -2.977  1.00  0.00    +0.000 OA
ATOM     41  H   UNL     1      -6.391   0.869  -3.811  1.00  0.00    +0.000 HD
ENDBRANCH  35  40
BRANCH  32  42
ATOM     42  C   UNL     1      -8.256   1.250   1.255  1.00  0.00    +0.000 C 
BRANCH  42  43
ATOM     43  O   UNL     1      -9.614   0.835   1.140  1.00  0.00    +0.000 OA
ATOM     44  H   UNL     1     -10.095   1.545   0.679  1.00  0.00    +0.000 HD
ENDBRANCH  42  43
ENDBRANCH  32  42
ENDBRANCH  29  30
ENDBRANCH  18  29
TORSDOF 9
