REMARK  Name = /srv/my_project/app/compsite/backup/Dave/CORINA_stuff/newPDBs/SANC00680.pdb
AUTHORGENERATED BY OPEN BABEL 2.3.2
REMARK  11 active torsions:
REMARK  status: ('A' for Active; 'I' for Inactive)
REMARK    1  A    between atoms: C_1  and  O_2
REMARK    2  A    between atoms: O_2  and  C_3
REMARK    3  A    between atoms: C_5  and  C_6
REMARK    4  A    between atoms: C_6  and  C_7
REMARK    5  A    between atoms: C_7  and  C_8
REMARK    6  A    between atoms: C_11  and  O_12
REMARK    7  A    between atoms: C_13  and  O_14
REMARK    8  A    between atoms: C_17  and  O_18
REMARK    9  A    between atoms: O_18  and  C_19
REMARK   10  A    between atoms: C_20  and  O_21
REMARK   11  A    between atoms: O_21  and  C_22
REMARK                            x       y       z     vdW  Elec       q    Type
REMARK                         _______ _______ _______ _____ _____    ______ ____
ROOT
ATOM      1  C   UNL     1      -2.739   0.848  -1.133  1.00  0.00    +0.000 A 
ATOM      2  C   UNL     1      -1.417   1.058  -0.732  1.00  0.00    +0.000 A 
ATOM      3  C   UNL     1      -0.477   0.017  -0.789  1.00  0.00    +0.000 A 
ATOM      4  C   UNL     1      -0.871  -1.250  -1.250  1.00  0.00    +0.000 A 
ATOM      5  C   UNL     1      -2.187  -1.482  -1.657  1.00  0.00    +0.000 A 
ATOM      6  C   UNL     1      -3.117  -0.431  -1.573  1.00  0.00    +0.000 A 
ENDROOT
BRANCH   1   8
ATOM      7  C   UNL     1      -3.329   3.142  -0.857  1.00  0.00    +0.000 C 
ATOM      8  O   UNL     1      -3.724   1.801  -1.112  1.00  0.00    +0.000 OA
ENDBRANCH   1   8
BRANCH   5   9
ATOM      9  O   UNL     1      -2.663  -2.682  -2.118  1.00  0.00    +0.000 OA
ATOM     10  C   UNL     1      -1.706  -3.684  -2.432  1.00  0.00    +0.000 C 
ENDBRANCH   5   9
BRANCH   6  11
ATOM     11  O   UNL     1      -4.409  -0.641  -2.007  1.00  0.00    +0.000 OA
ATOM     12  C   UNL     1      -5.219  -1.070  -0.914  1.00  0.00    +0.000 C 
ENDBRANCH   6  11
BRANCH   3  13
ATOM     13  C   UNL     1       0.943   0.251  -0.330  1.00  0.00    +0.000 C 
BRANCH  13  14
ATOM     14  C   UNL     1       1.101  -0.014   1.170  1.00  0.00    +0.000 C 
BRANCH  14  15
ATOM     15  C   UNL     1       2.518   0.223   1.630  1.00  0.00    +0.000 A 
ATOM     16  C   UNL     1       3.446  -0.833   1.656  1.00  0.00    +0.000 A 
ATOM     17  C   UNL     1       4.766  -0.615   2.064  1.00  0.00    +0.000 A 
ATOM     18  C   UNL     1       5.156   0.664   2.441  1.00  0.00    +0.000 A 
ATOM     19  C   UNL     1       4.243   1.715   2.412  1.00  0.00    +0.000 A 
ATOM     20  C   UNL     1       2.931   1.508   2.010  1.00  0.00    +0.000 A 
BRANCH  18  21
ATOM     21  O   UNL     1       6.432   0.941   2.848  1.00  0.00    +0.000 OA
ATOM     22  H   UNL     1       6.943   0.114   2.821  1.00  0.00    +0.000 HD
ENDBRANCH  18  21
BRANCH  19  23
ATOM     23  O   UNL     1       4.636   2.970   2.780  1.00  0.00    +0.000 OA
ATOM     24  H   UNL     1       5.579   2.868   3.020  1.00  0.00    +0.000 HD
ENDBRANCH  19  23
ENDBRANCH  14  15
ENDBRANCH  13  14
ENDBRANCH   3  13
TORSDOF 8
