REMARK  Name = SANCDB_01118_minRM1.pdb
AUTHORGENERATED BY OPEN BABEL 2.3.2
REMARK  5 active torsions:
REMARK  status: ('A' for Active; 'I' for Inactive)
REMARK    1  A    between atoms: C_1  and  O_2
REMARK    2  A    between atoms: O_2  and  C_3
REMARK    3  A    between atoms: C_5  and  C_10
REMARK    4  A    between atoms: C_7  and  O_9
REMARK    5  A    between atoms: C_19  and  O_21
REMARK                            x       y       z     vdW  Elec       q    Type
REMARK                         _______ _______ _______ _____ _____    ______ ____
ROOT
ATOM      1  C   UNL     1       0.333   0.458  -0.076  1.00  0.00    +0.000 A 
ATOM      2  C   UNL     1       1.030   1.537   0.312  1.00  0.00    +0.000 A 
ATOM      3  O   UNL     1       2.391   1.622   0.478  1.00  0.00    +0.000 OA
ATOM      4  C   UNL     1       3.133   0.492   0.245  1.00  0.00    +0.000 A 
ATOM      5  C   UNL     1       2.562  -0.715  -0.158  1.00  0.00    +0.000 A 
ATOM      6  C   UNL     1       1.101  -0.789  -0.345  1.00  0.00    +0.000 A 
ATOM      7  O   UNL     1       0.567  -1.830  -0.710  1.00  0.00    +0.000 OA
ATOM      8  C   UNL     1       3.368  -1.836  -0.382  1.00  0.00    +0.000 A 
ATOM      9  C   UNL     1       4.748  -1.740  -0.199  1.00  0.00    +0.000 A 
ATOM     10  C   UNL     1       5.309  -0.531   0.203  1.00  0.00    +0.000 A 
ATOM     11  C   UNL     1       4.513   0.590   0.428  1.00  0.00    +0.000 A 
ENDROOT
BRANCH   1  14
ATOM     12  C   UNL     1      -3.334  -0.298   0.477  1.00  0.00    +0.000 A 
ATOM     13  C   UNL     1      -1.938  -0.352   0.558  1.00  0.00    +0.000 A 
ATOM     14  C   UNL     1      -1.133   0.518  -0.193  1.00  0.00    +0.000 A 
ATOM     15  C   UNL     1      -1.749   1.445  -1.045  1.00  0.00    +0.000 A 
ATOM     16  C   UNL     1      -3.138   1.492  -1.123  1.00  0.00    +0.000 A 
ATOM     17  C   UNL     1      -3.933   0.634  -0.368  1.00  0.00    +0.000 A 
BRANCH  12  19
ATOM     18  C   UNL     1      -5.405  -1.238   1.165  1.00  0.00    +0.000 C 
ATOM     19  O   UNL     1      -3.987  -1.198   1.274  1.00  0.00    +0.000 OA
ENDBRANCH  12  19
BRANCH  16  20
ATOM     20  O   UNL     1      -3.772   2.381  -1.943  1.00  0.00    +0.000 OA
ATOM     21  H   UNL     1      -3.106   2.864  -2.459  1.00  0.00    +0.000 HD
ENDBRANCH  16  20
ENDBRANCH   1  14
BRANCH  10  22
ATOM     22  O   UNL     1       6.661  -0.486   0.368  1.00  0.00    +0.000 OA
ATOM     23  H   UNL     1       6.918   0.405   0.656  1.00  0.00    +0.000 HD
ENDBRANCH  10  22
TORSDOF 4
