REMARK  Name = /srv/my_project/app/compsite/backup/Dave/CORINA_stuff/newPDBs/SANC00448.pdb
AUTHORGENERATED BY OPEN BABEL 2.3.2
REMARK  16 active torsions:
REMARK  status: ('A' for Active; 'I' for Inactive)
REMARK    1  A    between atoms: C_1  and  C_2
REMARK    2  A    between atoms: C_6  and  C_7
REMARK    3  A    between atoms: C_6  and  C_8
REMARK    4  A    between atoms: C_8  and  O_9
REMARK    5  A    between atoms: C_11  and  O_13
REMARK    6  A    between atoms: C_30  and  C_31
REMARK    7  A    between atoms: C_38  and  C_39
REMARK    8  A    between atoms: C_38  and  C_40
REMARK    9  A    between atoms: C_41  and  C_43
REMARK   10  A    between atoms: C_44  and  O_46
REMARK   11  A    between atoms: C_47  and  C_49
REMARK   12  A    between atoms: C_53  and  O_55
REMARK   13  A    between atoms: C_68  and  C_69
REMARK   14  A    between atoms: C_73  and  O_75
REMARK   15  A    between atoms: C_76  and  C_77
REMARK   16  A    between atoms: C_78  and  O_79
REMARK                            x       y       z     vdW  Elec       q    Type
REMARK                         _______ _______ _______ _____ _____    ______ ____
ROOT
ATOM      1  C   UNL     1     -10.605   1.845   1.540  1.00  0.00    +0.000 C 
ATOM      2  C   UNL     1      -9.904   1.137   0.385  1.00  0.00    +0.000 C 
ATOM      3  C   UNL     1     -10.838   0.324  -0.524  1.00  0.00    +0.000 C 
ATOM      4  O   UNL     1     -11.527   1.242  -1.393  1.00  0.00    +0.000 OA
ATOM      5  C   UNL     1     -12.950   1.018  -1.295  1.00  0.00    +0.000 C 
ATOM      6  C   UNL     1     -13.393   0.252  -2.548  1.00  0.00    +0.000 C 
ATOM      7  C   UNL     1     -13.178   0.236  -0.001  1.00  0.00    +0.000 C 
ATOM      8  C   UNL     1     -11.910  -0.574   0.142  1.00  0.00    +0.000 C 
ATOM      9  O   UNL     1      -9.965  -0.516  -1.297  1.00  0.00    +0.000 OA
ATOM     10  C   UNL     1      -8.813  -0.786  -0.497  1.00  0.00    +0.000 C 
ATOM     11  C   UNL     1      -7.587  -0.374  -1.239  1.00  0.00    +0.000 C 
ATOM     12  C   UNL     1      -6.752   0.341  -0.473  1.00  0.00    +0.000 C 
ATOM     13  C   UNL     1      -5.311   0.707  -0.714  1.00  0.00    +0.000 C 
ATOM     14  C   UNL     1      -4.833   0.469  -2.155  1.00  0.00    +0.000 C 
ATOM     15  C   UNL     1      -3.357   0.811  -2.327  1.00  0.00    +0.000 C 
ATOM     16  C   UNL     1      -2.485   0.029  -1.337  1.00  0.00    +0.000 C 
ATOM     17  C   UNL     1      -0.996   0.322  -1.581  1.00  0.00    +0.000 C 
ATOM     18  C   UNL     1      -0.094  -0.282  -0.543  1.00  0.00    +0.000 A 
ATOM     19  N   UNL     1       1.229  -0.315  -0.839  1.00  0.00    +0.000 NA
ATOM     20  C   UNL     1       2.058  -0.811   0.113  1.00  0.00    +0.000 A 
ATOM     21  C   UNL     1       3.524  -0.864  -0.233  1.00  0.00    +0.000 C 
ATOM     22  C   UNL     1       4.473  -0.995   0.993  1.00  0.00    +0.000 C 
ATOM     23  C   UNL     1       4.549   0.365   1.734  1.00  0.00    +0.000 C 
ATOM     24  C   UNL     1       5.914  -1.344   0.563  1.00  0.00    +0.000 A 
ATOM     25  C   UNL     1       6.505  -0.651  -0.530  1.00  0.00    +0.000 A 
ATOM     26  C   UNL     1       7.803  -0.928  -0.931  1.00  0.00    +0.000 A 
ATOM     27  O   UNL     1       8.427  -0.154  -1.865  1.00  0.00    +0.000 OA
ATOM     28  C   UNL     1       9.867  -0.049  -1.653  1.00  0.00    +0.000 C 
ATOM     29  O   UNL     1      10.434   0.603  -2.825  1.00  0.00    +0.000 OA
ATOM     30  C   UNL     1      10.984   1.886  -2.468  1.00  0.00    +0.000 C 
ATOM     31  C   UNL     1      12.250   2.097  -3.303  1.00  0.00    +0.000 C 
ATOM     32  C   UNL     1       9.957   2.957  -2.857  1.00  0.00    +0.000 C 
ATOM     33  C   UNL     1      11.308   1.778  -0.971  1.00  0.00    +0.000 C 
ATOM     34  C   UNL     1      11.517   3.097  -0.239  1.00  0.00    +0.000 C 
ATOM     35  C   UNL     1      10.169   0.908  -0.451  1.00  0.00    +0.000 C 
ATOM     36  C   UNL     1      10.550  -1.460  -1.595  1.00  0.00    +0.000 C 
ATOM     37  C   UNL     1      12.054  -1.461  -1.325  1.00  0.00    +0.000 C 
ATOM     38  C   UNL     1       9.799  -2.466  -0.718  1.00  0.00    +0.000 C 
ATOM     39  C   UNL     1      10.315  -2.904   0.655  1.00  0.00    +0.000 C 
ATOM     40  C   UNL     1       9.062  -3.474   1.376  1.00  0.00    +0.000 C 
ATOM     41  C   UNL     1       7.983  -2.563   0.842  1.00  0.00    +0.000 A 
ATOM     42  C   UNL     1       8.472  -1.940  -0.305  1.00  0.00    +0.000 A 
ATOM     43  C   UNL     1       6.690  -2.288   1.293  1.00  0.00    +0.000 A 
ATOM     44  C   UNL     1       6.145  -3.035   2.484  1.00  0.00    +0.000 C 
ATOM     45  C   UNL     1       4.827  -2.495   3.025  1.00  0.00    +0.000 C 
ATOM     46  C   UNL     1       3.887  -2.136   1.877  1.00  0.00    +0.000 C 
ATOM     47  C   UNL     1       2.485  -1.800   2.402  1.00  0.00    +0.000 C 
ATOM     48  C   UNL     1       1.569  -1.283   1.330  1.00  0.00    +0.000 A 
ATOM     49  N   UNL     1       0.247  -1.241   1.631  1.00  0.00    +0.000 NA
ATOM     50  C   UNL     1      -0.578  -0.727   0.685  1.00  0.00    +0.000 A 
ATOM     51  C   UNL     1      -2.047  -0.710   1.018  1.00  0.00    +0.000 C 
ATOM     52  C   UNL     1      -2.901   0.258   0.151  1.00  0.00    +0.000 C 
ATOM     53  C   UNL     1      -2.622   1.712   0.612  1.00  0.00    +0.000 C 
ATOM     54  C   UNL     1      -4.430  -0.097   0.294  1.00  0.00    +0.000 C 
ATOM     55  C   UNL     1      -4.969  -0.011   1.749  1.00  0.00    +0.000 C 
ATOM     56  C   UNL     1      -6.481  -0.307   1.855  1.00  0.00    +0.000 C 
ATOM     57  C   UNL     1      -7.327   0.590   0.910  1.00  0.00    +0.000 C 
ATOM     58  C   UNL     1      -7.233   2.069   1.338  1.00  0.00    +0.000 C 
ATOM     59  C   UNL     1      -8.825   0.111   0.767  1.00  0.00    +0.000 C 
ENDROOT
BRANCH   8  60
ATOM     60  O   UNL     1     -12.098  -1.808  -0.570  1.00  0.00    +0.000 OA
ATOM     61  H   UNL     1     -11.347  -1.867  -1.197  1.00  0.00    +0.000 HD
ENDBRANCH   8  60
BRANCH  35  62
ATOM     62  O   UNL     1       9.076   1.766  -0.095  1.00  0.00    +0.000 OA
ATOM     63  H   UNL     1       8.296   1.462  -0.596  1.00  0.00    +0.000 HD
ENDBRANCH  35  62
BRANCH  40  64
ATOM     64  O   UNL     1       9.230  -3.374   2.775  1.00  0.00    +0.000 OA
ATOM     65  H   UNL     1       9.991  -3.929   3.013  1.00  0.00    +0.000 HD
ENDBRANCH  40  64
BRANCH  56  66
ATOM     66  O   UNL     1      -6.917  -0.122   3.206  1.00  0.00    +0.000 OA
ATOM     67  H   UNL     1      -6.340  -0.667   3.772  1.00  0.00    +0.000 HD
ENDBRANCH  56  66
BRANCH  59  68
ATOM     68  O   UNL     1      -9.267  -0.643   1.898  1.00  0.00    +0.000 OA
ATOM     69  H   UNL     1      -8.763  -0.327   2.679  1.00  0.00    +0.000 HD
ENDBRANCH  59  68
BRANCH   5  70
ATOM     70  C   UNL     1     -13.637   2.396  -1.241  1.00  0.00    +0.000 C 
BRANCH  70  71
ATOM     71  O   UNL     1     -13.293   3.182  -2.382  1.00  0.00    +0.000 OA
ATOM     72  H   UNL     1     -12.339   3.024  -2.528  1.00  0.00    +0.000 HD
ENDBRANCH  70  71
ENDBRANCH   5  70
TORSDOF 7
