REMARK  Name = /srv/my_project/app/compsite/backup/Dave/CORINA_stuff/newPDBs/SANC00614.pdb
AUTHORGENERATED BY OPEN BABEL 2.3.2
REMARK  8 active torsions:
REMARK  status: ('A' for Active; 'I' for Inactive)
REMARK    1  A    between atoms: C_1  and  O_2
REMARK    2  A    between atoms: O_2  and  C_3
REMARK    3  A    between atoms: C_6  and  C_7
REMARK    4  A    between atoms: C_7  and  C_8
REMARK    5  A    between atoms: C_14  and  O_15
REMARK    6  A    between atoms: O_15  and  C_16
REMARK    7  A    between atoms: C_18  and  O_19
REMARK    8  A    between atoms: O_19  and  C_20
REMARK                            x       y       z     vdW  Elec       q    Type
REMARK                         _______ _______ _______ _____ _____    ______ ____
ROOT
ATOM      1  C   UNL     1       0.455  -1.155   0.965  1.00  0.00    +0.000 C 
ATOM      2  C   UNL     1       0.395  -1.704  -0.451  1.00  0.00    +0.000 C 
ATOM      3  O   UNL     1      -0.315  -0.825  -1.324  1.00  0.00    +0.000 OA
ATOM      4  C   UNL     1      -1.595  -0.582  -0.892  1.00  0.00    +0.000 A 
ATOM      5  C   UNL     1      -2.492  -0.183  -1.882  1.00  0.00    +0.000 A 
ATOM      6  C   UNL     1      -3.820   0.087  -1.563  1.00  0.00    +0.000 A 
ATOM      7  C   UNL     1      -4.246  -0.035  -0.237  1.00  0.00    +0.000 A 
ATOM      8  C   UNL     1      -3.349  -0.414   0.776  1.00  0.00    +0.000 A 
ATOM      9  C   UNL     1      -2.007  -0.683   0.443  1.00  0.00    +0.000 A 
ATOM     10  C   UNL     1      -0.969  -1.035   1.459  1.00  0.00    +0.000 C 
ATOM     11  O   UNL     1      -1.219  -1.182   2.651  1.00  0.00    +0.000 OA
ENDROOT
BRANCH   6  12
ATOM     12  O   UNL     1      -4.595   0.456  -2.627  1.00  0.00    +0.000 OA
ATOM     13  C   UNL     1      -5.962   0.754  -2.369  1.00  0.00    +0.000 C 
ENDBRANCH   6  12
BRANCH   8  14
ATOM     14  O   UNL     1      -3.708  -0.534   2.091  1.00  0.00    +0.000 OA
ATOM     15  C   UNL     1      -5.048  -0.254   2.467  1.00  0.00    +0.000 C 
ENDBRANCH   8  14
BRANCH   1  16
ATOM     16  C   UNL     1       1.136   0.213   1.094  1.00  0.00    +0.000 C 
BRANCH  16  20
ATOM     17  C   UNL     1       5.355   0.060   0.154  1.00  0.00    +0.000 A 
ATOM     18  C   UNL     1       4.449   0.588  -0.765  1.00  0.00    +0.000 A 
ATOM     19  C   UNL     1       3.085   0.643  -0.458  1.00  0.00    +0.000 A 
ATOM     20  C   UNL     1       2.610   0.171   0.772  1.00  0.00    +0.000 A 
ATOM     21  C   UNL     1       3.522  -0.359   1.691  1.00  0.00    +0.000 A 
ATOM     22  C   UNL     1       4.883  -0.412   1.381  1.00  0.00    +0.000 A 
BRANCH  17  24
ATOM     23  C   UNL     1       7.238   0.434  -1.246  1.00  0.00    +0.000 C 
ATOM     24  O   UNL     1       6.707  -0.053  -0.020  1.00  0.00    +0.000 OA
ENDBRANCH  17  24
ENDBRANCH  16  20
ENDBRANCH   1  16
TORSDOF 5
