REMARK  Name = /srv/my_project/app/compsite/backup/Dave/CORINA_stuff/newPDBs/SANC00225.pdb
AUTHORGENERATED BY OPEN BABEL 2.3.2
REMARK  7 active torsions:
REMARK  status: ('A' for Active; 'I' for Inactive)
REMARK    1  A    between atoms: C_1  and  O_2
REMARK    2  A    between atoms: O_2  and  C_3
REMARK    3  A    between atoms: C_8  and  C_10
REMARK    4  A    between atoms: C_10  and  C_11
REMARK    5  A    between atoms: C_14  and  O_15
REMARK    6  A    between atoms: C_21  and  O_22
REMARK    7  A    between atoms: C_23  and  O_24
REMARK                            x       y       z     vdW  Elec       q    Type
REMARK                         _______ _______ _______ _____ _____    ______ ____
ROOT
ATOM      1  C   UNL     1      -3.963  -0.333   0.130  1.00  0.00    +0.000 A 
ATOM      2  C   UNL     1      -3.151   0.672   0.648  1.00  0.00    +0.000 A 
ATOM      3  C   UNL     1      -1.855   0.858   0.145  1.00  0.00    +0.000 A 
ATOM      4  O   UNL     1      -1.144   1.876   0.731  1.00  0.00    +0.000 OA
ATOM      5  C   UNL     1      -0.063   2.338  -0.082  1.00  0.00    +0.000 C 
ATOM      6  C   UNL     1       0.883   1.209  -0.464  1.00  0.00    +0.000 C 
ATOM      7  C   UNL     1       0.066   0.245  -1.298  1.00  0.00    +0.000 C 
ATOM      8  O   UNL     1       0.558  -0.325  -2.264  1.00  0.00    +0.000 OA
ATOM      9  C   UNL     1      -1.340   0.026  -0.862  1.00  0.00    +0.000 A 
ATOM     10  C   UNL     1      -2.154  -0.981  -1.377  1.00  0.00    +0.000 A 
ATOM     11  C   UNL     1      -3.449  -1.147  -0.883  1.00  0.00    +0.000 A 
ENDROOT
BRANCH   1  13
ATOM     12  C   UNL     1      -5.798   0.182   1.550  1.00  0.00    +0.000 C 
ATOM     13  O   UNL     1      -5.245  -0.624   0.515  1.00  0.00    +0.000 OA
ENDBRANCH   1  13
BRANCH  10  14
ATOM     14  O   UNL     1      -1.732  -1.845  -2.348  1.00  0.00    +0.000 OA
ATOM     15  H   UNL     1      -2.489  -2.438  -2.526  1.00  0.00    +0.000 HD
ENDBRANCH  10  14
BRANCH  11  16
ATOM     16  O   UNL     1      -4.216  -2.154  -1.419  1.00  0.00    +0.000 OA
ATOM     17  H   UNL     1      -5.069  -2.104  -0.941  1.00  0.00    +0.000 HD
ENDBRANCH  11  16
BRANCH   6  18
ATOM     18  C   UNL     1       1.475   0.499   0.764  1.00  0.00    +0.000 C 
BRANCH  18  19
ATOM     19  C   UNL     1       2.881  -0.004   0.524  1.00  0.00    +0.000 A 
ATOM     20  C   UNL     1       3.105  -1.168  -0.223  1.00  0.00    +0.000 A 
ATOM     21  C   UNL     1       4.405  -1.625  -0.447  1.00  0.00    +0.000 A 
ATOM     22  C   UNL     1       5.483  -0.921   0.074  1.00  0.00    +0.000 A 
ATOM     23  C   UNL     1       5.283   0.239   0.815  1.00  0.00    +0.000 A 
ATOM     24  C   UNL     1       3.982   0.697   1.037  1.00  0.00    +0.000 A 
BRANCH  22  25
ATOM     25  O   UNL     1       6.735  -1.404  -0.167  1.00  0.00    +0.000 OA
ATOM     26  H   UNL     1       7.380  -0.803   0.239  1.00  0.00    +0.000 HD
ENDBRANCH  22  25
ENDBRANCH  18  19
ENDBRANCH   6  18
TORSDOF 6
