REMARK  Name = /srv/my_project/app/compsite/backup/Dave/CORINA_stuff/newPDBs/SANC00632.pdb
AUTHORGENERATED BY OPEN BABEL 2.3.2
REMARK  4 active torsions:
REMARK  status: ('A' for Active; 'I' for Inactive)
REMARK    1  A    between atoms: C_1  and  C_2
REMARK    2  A    between atoms: C_10  and  C_14
REMARK    3  A    between atoms: C_14  and  C_15
REMARK    4  A    between atoms: C_14  and  C_16
REMARK                            x       y       z     vdW  Elec       q    Type
REMARK                         _______ _______ _______ _____ _____    ______ ____
ROOT
ATOM      1  C   UNL     1      -2.831   0.976   0.622  1.00  0.00    +0.000 C 
ATOM      2  C   UNL     1      -1.454   1.545   0.353  1.00  0.00    +0.000 C 
ATOM      3  C   UNL     1      -0.865   2.295   1.308  1.00  0.00    +0.000 C 
ATOM      4  C   UNL     1       0.452   3.029   1.389  1.00  0.00    +0.000 C 
ATOM      5  C   UNL     1       1.723   2.494   0.713  1.00  0.00    +0.000 C 
ATOM      6  C   UNL     1       2.078   1.049   0.979  1.00  0.00    +0.000 C 
ATOM      7  C   UNL     1       2.044   0.473   2.191  1.00  0.00    +0.000 C 
ATOM      8  C   UNL     1       2.463   0.290  -0.193  1.00  0.00    +0.000 C 
ATOM      9  C   UNL     1       1.683  -0.592  -0.839  1.00  0.00    +0.000 C 
ATOM     10  C   UNL     1       0.269  -1.000  -0.464  1.00  0.00    +0.000 C 
ATOM     11  C   UNL     1      -0.749  -0.255  -1.356  1.00  0.00    +0.000 C 
ATOM     12  C   UNL     1      -0.917   1.244  -1.031  1.00  0.00    +0.000 C 
ENDROOT
BRANCH  10  13
ATOM     13  C   UNL     1       0.124  -2.552  -0.516  1.00  0.00    +0.000 C 
ATOM     14  C   UNL     1       0.094  -3.137  -1.933  1.00  0.00    +0.000 C 
ATOM     15  C   UNL     1      -1.119  -3.021   0.252  1.00  0.00    +0.000 C 
ENDBRANCH  10  13
TORSDOF 1
