REMARK  Name = /srv/my_project/app/compsite/backup/Dave/CORINA_stuff/newPDBs/SANC00554.pdb
AUTHORGENERATED BY OPEN BABEL 2.3.2
REMARK  13 active torsions:
REMARK  status: ('A' for Active; 'I' for Inactive)
REMARK    1  A    between atoms: C_4  and  C_5
REMARK    2  A    between atoms: C_4  and  C_6
REMARK    3  A    between atoms: C_6  and  O_8
REMARK    4  A    between atoms: C_11  and  C_12
REMARK    5  A    between atoms: C_15  and  C_16
REMARK    6  A    between atoms: C_22  and  C_23
REMARK    7  A    between atoms: C_22  and  C_24
REMARK    8  A    between atoms: C_24  and  C_25
REMARK    9  A    between atoms: C_25  and  C_26
REMARK   10  A    between atoms: C_26  and  O_28
REMARK   11  A    between atoms: C_29  and  C_31
REMARK   12  A    between atoms: C_31  and  C_33
REMARK   13  A    between atoms: C_36  and  C_37
REMARK                            x       y       z     vdW  Elec       q    Type
REMARK                         _______ _______ _______ _____ _____    ______ ____
ROOT
ATOM      1  C   UNL     1       3.084  -0.247   0.399  1.00  0.00    +0.000 C 
ATOM      2  C   UNL     1       3.648   1.192   0.352  1.00  0.00    +0.000 C 
ATOM      3  C   UNL     1       5.186   1.271   0.307  1.00  0.00    +0.000 C 
ATOM      4  C   UNL     1       5.793   0.829   1.654  1.00  0.00    +0.000 C 
ATOM      5  C   UNL     1       5.719   0.399  -0.844  1.00  0.00    +0.000 C 
ATOM      6  C   UNL     1       5.224  -1.043  -0.774  1.00  0.00    +0.000 C 
ATOM      7  C   UNL     1       3.682  -1.193  -0.679  1.00  0.00    +0.000 C 
ATOM      8  C   UNL     1       3.416  -2.671  -0.290  1.00  0.00    +0.000 C 
ATOM      9  C   UNL     1       3.036  -0.890  -2.050  1.00  0.00    +0.000 C 
ATOM     10  C   UNL     1       1.512  -1.056  -2.036  1.00  0.00    +0.000 C 
ATOM     11  C   UNL     1       0.771  -0.233  -0.938  1.00  0.00    +0.000 C 
ATOM     12  C   UNL     1       0.729   1.244  -1.441  1.00  0.00    +0.000 C 
ATOM     13  C   UNL     1       1.550  -0.222   0.398  1.00  0.00    +0.000 C 
ATOM     14  C   UNL     1       0.904  -0.193   1.582  1.00  0.00    +0.000 C 
ATOM     15  C   UNL     1      -0.586  -0.175   1.772  1.00  0.00    +0.000 C 
ATOM     16  C   UNL     1      -1.405   0.018   0.469  1.00  0.00    +0.000 C 
ATOM     17  C   UNL     1      -3.000  -0.057   0.670  1.00  0.00    +0.000 C 
ATOM     18  C   UNL     1      -3.435  -1.292   1.485  1.00  0.00    +0.000 C 
ATOM     19  C   UNL     1      -3.681  -0.016  -0.762  1.00  0.00    +0.000 C 
ATOM     20  C   UNL     1      -3.073  -1.040  -1.736  1.00  0.00    +0.000 C 
ATOM     21  C   UNL     1      -1.597  -0.750  -1.974  1.00  0.00    +0.000 C 
ATOM     22  C   UNL     1      -0.737  -0.825  -0.689  1.00  0.00    +0.000 C 
ATOM     23  C   UNL     1      -0.650  -2.337  -0.302  1.00  0.00    +0.000 C 
ENDROOT
BRANCH  19  24
ATOM     24  C   UNL     1      -5.211  -0.059  -0.837  1.00  0.00    +0.000 C 
ATOM     25  C   UNL     1      -5.921   1.072  -1.005  1.00  0.00    +0.000 C 
ATOM     26  C   UNL     1      -5.921  -1.390  -0.834  1.00  0.00    +0.000 C 
ENDBRANCH  19  24
BRANCH   3  27
ATOM     27  C   UNL     1       5.598   2.725   0.067  1.00  0.00    +0.000 C 
ATOM     28  O   UNL     1       6.229   3.442   0.826  1.00  0.00    +0.000 OA
BRANCH  27  29
ATOM     29  O   UNL     1       5.187   3.216  -1.119  1.00  0.00    +0.000 OA
ATOM     30  H   UNL     1       5.512   4.141  -1.115  1.00  0.00    +0.000 HD
ENDBRANCH  27  29
ENDBRANCH   3  27
BRANCH  17  31
ATOM     31  C   UNL     1      -3.419   1.251   1.466  1.00  0.00    +0.000 C 
BRANCH  31  32
ATOM     32  C   UNL     1      -4.718   1.216   2.281  1.00  0.00    +0.000 C 
BRANCH  32  33
ATOM     33  C   UNL     1      -5.099   2.586   2.778  1.00  0.00    +0.000 C 
ATOM     34  O   UNL     1      -4.526   3.641   2.571  1.00  0.00    +0.000 OA
BRANCH  33  35
ATOM     35  O   UNL     1      -6.215   2.552   3.534  1.00  0.00    +0.000 OA
ATOM     36  H   UNL     1      -6.355   3.488   3.789  1.00  0.00    +0.000 HD
ENDBRANCH  33  35
ENDBRANCH  32  33
ENDBRANCH  31  32
ENDBRANCH  17  31
TORSDOF 7
