REMARK  Name = SANCDB_01030_minRM1.pdb
AUTHORGENERATED BY OPEN BABEL 2.3.2
REMARK  7 active torsions:
REMARK  status: ('A' for Active; 'I' for Inactive)
REMARK    1  A    between atoms: C_1  and  O_2
REMARK    2  A    between atoms: O_2  and  C_3
REMARK    3  A    between atoms: C_10  and  C_16
REMARK    4  A    between atoms: C_11  and  O_14
REMARK    5  A    between atoms: O_14  and  C_15
REMARK    6  A    between atoms: C_21  and  O_22
REMARK    7  A    between atoms: O_22  and  C_23
REMARK                            x       y       z     vdW  Elec       q    Type
REMARK                         _______ _______ _______ _____ _____    ______ ____
ROOT
ATOM      1  C   UNL     1       4.071   1.040  -0.433  1.00  0.00    +0.000 A 
ATOM      2  C   UNL     1       3.030   1.440   0.410  1.00  0.00    +0.000 A 
ATOM      3  C   UNL     1       1.787   0.801   0.347  1.00  0.00    +0.000 A 
ATOM      4  C   UNL     1       1.581  -0.234  -0.554  1.00  0.00    +0.000 A 
ATOM      5  C   UNL     1       2.614  -0.638  -1.397  1.00  0.00    +0.000 A 
ATOM      6  C   UNL     1       3.859  -0.002  -1.337  1.00  0.00    +0.000 A 
ATOM      7  O   UNL     1       0.390  -0.898  -0.662  1.00  0.00    +0.000 OA
ATOM      8  C   UNL     1      -0.657  -0.504   0.150  1.00  0.00    +0.000 A 
ATOM      9  C   UNL     1      -0.604   0.462   1.089  1.00  0.00    +0.000 A 
ATOM     10  C   UNL     1       0.683   1.210   1.230  1.00  0.00    +0.000 A 
ATOM     11  O   UNL     1       0.843   2.125   2.030  1.00  0.00    +0.000 OA
ENDROOT
BRANCH   8  12
ATOM     12  C   UNL     1      -1.885  -1.282  -0.090  1.00  0.00    +0.000 A 
ATOM     13  C   UNL     1      -1.964  -2.597   0.392  1.00  0.00    +0.000 A 
ATOM     14  C   UNL     1      -3.114  -3.361   0.182  1.00  0.00    +0.000 A 
ATOM     15  C   UNL     1      -4.189  -2.822  -0.522  1.00  0.00    +0.000 A 
ATOM     16  C   UNL     1      -4.122  -1.517  -1.012  1.00  0.00    +0.000 A 
ATOM     17  C   UNL     1      -2.980  -0.742  -0.784  1.00  0.00    +0.000 A 
BRANCH  17  18
ATOM     18  O   UNL     1      -2.872   0.526  -1.298  1.00  0.00    +0.000 OA
ATOM     19  C   UNL     1      -3.923   1.381  -0.851  1.00  0.00    +0.000 C 
ENDBRANCH  17  18
ENDBRANCH   8  12
BRANCH   1  21
ATOM     20  C   UNL     1       6.321   1.391  -1.123  1.00  0.00    +0.000 C 
ATOM     21  O   UNL     1       5.234   1.741  -0.274  1.00  0.00    +0.000 OA
ENDBRANCH   1  21
BRANCH   9  22
ATOM     22  O   UNL     1      -1.719   0.765   1.862  1.00  0.00    +0.000 OA
ATOM     23  C   UNL     1      -1.443   1.039   3.231  1.00  0.00    +0.000 C 
ENDBRANCH   9  22
TORSDOF 4
