REMARK  Name = SANCDB_00877_minRM1.pdb
AUTHORGENERATED BY OPEN BABEL 2.3.2
REMARK  10 active torsions:
REMARK  status: ('A' for Active; 'I' for Inactive)
REMARK    1  A    between atoms: C_1  and  C_2
REMARK    2  A    between atoms: C_5  and  O_33
REMARK    3  A    between atoms: C_6  and  C_31
REMARK    4  A    between atoms: C_6  and  C_32
REMARK    5  A    between atoms: C_10  and  C_30
REMARK    6  A    between atoms: C_14  and  C_29
REMARK    7  A    between atoms: C_18  and  C_26
REMARK    8  A    between atoms: C_21  and  C_24
REMARK    9  A    between atoms: C_21  and  C_25
REMARK   10  A    between atoms: C_26  and  O_28
REMARK                            x       y       z     vdW  Elec       q    Type
REMARK                         _______ _______ _______ _____ _____    ______ ____
ROOT
ATOM      1  C   UNL     1       3.246  -1.691   0.980  1.00  0.00    +0.000 C 
ATOM      2  C   UNL     1       2.938  -0.664  -0.137  1.00  0.00    +0.000 C 
ATOM      3  C   UNL     1       3.500  -1.228  -1.476  1.00  0.00    +0.000 C 
ATOM      4  C   UNL     1       5.024  -1.222  -1.568  1.00  0.00    +0.000 C 
ATOM      5  C   UNL     1       5.613   0.161  -1.310  1.00  0.00    +0.000 C 
ATOM      6  C   UNL     1       5.165   0.798   0.039  1.00  0.00    +0.000 C 
ATOM      7  C   UNL     1       3.593   0.747   0.109  1.00  0.00    +0.000 C 
ATOM      8  C   UNL     1       2.972   1.438   1.337  1.00  0.00    +0.000 C 
ATOM      9  C   UNL     1       1.456   1.619   1.190  1.00  0.00    +0.000 C 
ATOM     10  C   UNL     1       0.656   0.319   0.882  1.00  0.00    +0.000 C 
ATOM     11  C   UNL     1       1.374  -0.424  -0.295  1.00  0.00    +0.000 C 
ATOM     12  C   UNL     1       0.597  -1.657  -0.811  1.00  0.00    +0.000 C 
ATOM     13  C   UNL     1      -0.917  -1.616  -0.594  1.00  0.00    +0.000 C 
ATOM     14  C   UNL     1      -1.553  -0.207  -0.556  1.00  0.00    +0.000 C 
ATOM     15  C   UNL     1      -0.827   0.651   0.505  1.00  0.00    +0.000 C 
ATOM     16  C   UNL     1      -1.515   1.628   1.135  1.00  0.00    +0.000 C 
ATOM     17  C   UNL     1      -3.009   1.734   1.058  1.00  0.00    +0.000 C 
ATOM     18  C   UNL     1      -3.626   0.322   1.038  1.00  0.00    +0.000 C 
ATOM     19  C   UNL     1      -3.139  -0.407  -0.261  1.00  0.00    +0.000 C 
ATOM     20  C   UNL     1      -4.035  -0.082  -1.489  1.00  0.00    +0.000 C 
ATOM     21  C   UNL     1      -5.553  -0.188  -1.259  1.00  0.00    +0.000 C 
ATOM     22  C   UNL     1      -5.926   0.730  -0.088  1.00  0.00    +0.000 C 
ATOM     23  C   UNL     1      -5.168   0.384   1.183  1.00  0.00    +0.000 C 
ATOM     24  C   UNL     1      -5.978  -1.645  -1.001  1.00  0.00    +0.000 C 
ATOM     25  C   UNL     1      -6.288   0.300  -2.524  1.00  0.00    +0.000 C 
ATOM     26  C   UNL     1      -1.324   0.486  -1.930  1.00  0.00    +0.000 C 
ATOM     27  C   UNL     1       0.581  -0.525   2.179  1.00  0.00    +0.000 C 
ATOM     28  C   UNL     1       5.642   2.277   0.028  1.00  0.00    +0.000 C 
ATOM     29  C   UNL     1       5.865   0.137   1.243  1.00  0.00    +0.000 C 
ENDROOT
BRANCH  18  30
ATOM     30  C   UNL     1      -3.179  -0.476   2.276  1.00  0.00    +0.000 C 
ATOM     31  O   UNL     1      -2.855  -1.653   2.317  1.00  0.00    +0.000 OA
BRANCH  30  32
ATOM     32  O   UNL     1      -3.253   0.224   3.428  1.00  0.00    +0.000 OA
ATOM     33  H   UNL     1      -2.962  -0.421   4.105  1.00  0.00    +0.000 HD
ENDBRANCH  30  32
ENDBRANCH  18  30
BRANCH   5  34
ATOM     34  O   UNL     1       7.035   0.085  -1.410  1.00  0.00    +0.000 OA
ATOM     35  H   UNL     1       7.344  -0.615  -0.811  1.00  0.00    +0.000 HD
ENDBRANCH   5  34
TORSDOF 3
