REMARK  Name = SANCDB_00885_minRM1.pdb
AUTHORGENERATED BY OPEN BABEL 2.3.2
REMARK  6 active torsions:
REMARK  status: ('A' for Active; 'I' for Inactive)
REMARK    1  A    between atoms: C_1  and  O_2
REMARK    2  A    between atoms: O_2  and  C_3
REMARK    3  A    between atoms: C_6  and  C_9
REMARK    4  A    between atoms: C_10  and  O_22
REMARK    5  A    between atoms: C_14  and  O_21
REMARK    6  A    between atoms: C_16  and  O_20
REMARK                            x       y       z     vdW  Elec       q    Type
REMARK                         _______ _______ _______ _____ _____    ______ ____
ROOT
ATOM      1  C   UNL     1      -0.075   0.212  -0.303  1.00  0.00    +0.000 A 
ATOM      2  C   UNL     1      -0.479   0.580  -1.531  1.00  0.00    +0.000 A 
ATOM      3  C   UNL     1      -1.931   0.599  -1.842  1.00  0.00    +0.000 A 
ATOM      4  O   UNL     1      -2.267   0.946  -2.970  1.00  0.00    +0.000 OA
ATOM      5  C   UNL     1      -2.854   0.198  -0.761  1.00  0.00    +0.000 A 
ATOM      6  C   UNL     1      -4.247   0.159  -0.914  1.00  0.00    +0.000 A 
ATOM      7  C   UNL     1      -5.068  -0.228   0.150  1.00  0.00    +0.000 A 
ATOM      8  C   UNL     1      -4.487  -0.574   1.366  1.00  0.00    +0.000 A 
ATOM      9  C   UNL     1      -3.109  -0.541   1.533  1.00  0.00    +0.000 A 
ATOM     10  C   UNL     1      -2.293  -0.155   0.468  1.00  0.00    +0.000 A 
ATOM     11  O   UNL     1      -0.944  -0.148   0.716  1.00  0.00    +0.000 OA
ENDROOT
BRANCH   1  15
ATOM     12  C   UNL     1       4.037   0.063   0.964  1.00  0.00    +0.000 A 
ATOM     13  C   UNL     1       3.667  -0.479  -0.266  1.00  0.00    +0.000 A 
ATOM     14  C   UNL     1       2.330  -0.428  -0.685  1.00  0.00    +0.000 A 
ATOM     15  C   UNL     1       1.344   0.171   0.111  1.00  0.00    +0.000 A 
ATOM     16  C   UNL     1       1.727   0.704   1.349  1.00  0.00    +0.000 A 
ATOM     17  C   UNL     1       3.060   0.652   1.768  1.00  0.00    +0.000 A 
BRANCH  12  19
ATOM     18  C   UNL     1       6.333  -0.485   0.694  1.00  0.00    +0.000 C 
ATOM     19  O   UNL     1       5.299   0.079   1.490  1.00  0.00    +0.000 OA
ENDBRANCH  12  19
ENDBRANCH   1  15
BRANCH   8  20
ATOM     20  O   UNL     1      -5.243  -0.957   2.434  1.00  0.00    +0.000 OA
ATOM     21  H   UNL     1      -6.183  -0.942   2.190  1.00  0.00    +0.000 HD
ENDBRANCH   8  20
BRANCH   6  22
ATOM     22  O   UNL     1      -4.826   0.496  -2.104  1.00  0.00    +0.000 OA
ATOM     23  H   UNL     1      -5.792   0.426  -2.051  1.00  0.00    +0.000 HD
ENDBRANCH   6  22
BRANCH   2  24
ATOM     24  O   UNL     1       0.375   0.970  -2.548  1.00  0.00    +0.000 OA
ATOM     25  H   UNL     1      -0.223   1.200  -3.293  1.00  0.00    +0.000 HD
ENDBRANCH   2  24
TORSDOF 5
