REMARK  Name = 
REMARK  12 active torsions:
REMARK  status: ('A' for Active; 'I' for Inactive)
REMARK    1  A    between atoms: C_1  and  C_2
REMARK    2  A    between atoms: C_4  and  C_5
REMARK    3  A    between atoms: C_7  and  C_8
REMARK    4  A    between atoms: C_12  and  C_13
REMARK    5  A    between atoms: C_13  and  C_14
REMARK    6  A    between atoms: C_13  and  C_15
REMARK    7  A    between atoms: C_19  and  C_20
REMARK    8  A    between atoms: C_20  and  C_21
REMARK    9  A    between atoms: C_24  and  O_25
REMARK   10  A    between atoms: N_29  and  C_30
REMARK   11  A    between atoms: C_36  and  C_37
REMARK   12  A    between atoms: C_41  and  C_42
REMARK                            x       y       z     vdW  Elec       q    Type
REMARK                         _______ _______ _______ _____ _____    ______ ____
ROOT
ATOM      1  C   UNL     1       5.795   0.842  -1.431  1.00  0.00    +0.000 C 
ATOM      2  C   UNL     1       4.489   0.828  -0.694  1.00  0.00    +0.000 C 
ATOM      3  C   UNL     1       4.040  -0.192   0.062  1.00  0.00    +0.000 C 
ATOM      4  C   UNL     1       4.597  -1.587   0.212  1.00  0.00    +0.000 C 
ATOM      5  C   UNL     1       5.393  -1.699   1.510  1.00  0.00    +0.000 C 
ATOM      6  C   UNL     1       3.424  -2.601   0.210  1.00  0.00    +0.000 C 
ATOM      7  C   UNL     1       2.569  -2.549  -1.077  1.00  0.00    +0.000 C 
ATOM      8  C   UNL     1       3.087  -3.537  -2.118  1.00  0.00    +0.000 C 
ATOM      9  O   UNL     1       1.195  -2.905  -0.802  1.00  0.00    +0.000 OA
ATOM     10  C   UNL     1       0.435  -1.920  -0.238  1.00  0.00    +0.000 C 
ATOM     11  O   UNL     1       0.865  -0.856   0.198  1.00  0.00    +0.000 OA
ATOM     12  C   UNL     1      -1.050  -2.317  -0.193  1.00  0.00    +0.000 C 
ATOM     13  N   UNL     1      -1.853  -1.127   0.141  1.00  0.00    +0.000 N 
ATOM     14  C   UNL     1      -2.075  -0.172  -0.839  1.00  0.00    +0.000 C 
ATOM     15  O   UNL     1      -1.679  -0.340  -1.992  1.00  0.00    +0.000 OA
ATOM     16  C   UNL     1      -2.727   1.161  -0.385  1.00  0.00    +0.000 C 
ATOM     17  N   UNL     1      -1.698   2.140   0.081  1.00  0.00    +0.000 N 
ATOM     18  C   UNL     1      -1.034   1.886   1.354  1.00  0.00    +0.000 C 
ATOM     19  C   UNL     1      -1.377   3.187  -0.790  1.00  0.00    +0.000 C 
ATOM     20  O   UNL     1      -2.113   3.452  -1.749  1.00  0.00    +0.000 OA
ATOM     21  C   UNL     1      -0.173   4.128  -0.513  1.00  0.00    +0.000 C 
ATOM     22  C   UNL     1      -0.584   5.237   0.455  1.00  0.00    +0.000 C 
ATOM     23  N   UNL     1       1.040   3.423  -0.099  1.00  0.00    +0.000 N 
ATOM     24  C   UNL     1       2.285   4.016  -0.186  1.00  0.00    +0.000 C 
ATOM     25  O   UNL     1       2.447   5.195  -0.486  1.00  0.00    +0.000 OA
ATOM     26  C   UNL     1       3.468   3.100   0.131  1.00  0.00    +0.000 C 
ATOM     27  C   UNL     1       3.344   2.605   1.572  1.00  0.00    +0.000 C 
ATOM     28  C   UNL     1       3.565   2.006  -0.948  1.00  0.00    +0.000 C 
ATOM     29  H   UNL     1      -1.751  -0.774   1.082  1.00  0.00    +0.000 HD
ATOM     30  H   UNL     1       1.008   2.412  -0.151  1.00  0.00    +0.000 HD
ENDROOT
BRANCH  12  31
ATOM     31  C   UNL     1      -1.281  -3.487   0.790  1.00  0.00    +0.000 C 
ATOM     32  C   UNL     1      -0.982  -3.128   2.249  1.00  0.00    +0.000 C 
ATOM     33  C   UNL     1      -2.705  -4.034   0.668  1.00  0.00    +0.000 C 
ENDBRANCH  12  31
BRANCH  16  34
ATOM     34  C   UNL     1      -3.898   0.998   0.605  1.00  0.00    +0.000 C 
BRANCH  34  35
ATOM     35  C   UNL     1      -5.105   0.296   0.020  1.00  0.00    +0.000 A 
ATOM     36  C   UNL     1      -5.842   0.886  -1.016  1.00  0.00    +0.000 A 
ATOM     37  C   UNL     1      -6.952   0.236  -1.561  1.00  0.00    +0.000 A 
ATOM     38  C   UNL     1      -7.340  -1.009  -1.069  1.00  0.00    +0.000 A 
ATOM     39  C   UNL     1      -6.623  -1.605  -0.029  1.00  0.00    +0.000 A 
ATOM     40  I   UNL     1      -7.158  -3.467   0.758  1.00  0.00    +0.000 I 
ATOM     41  C   UNL     1      -5.511  -0.952   0.514  1.00  0.00    +0.000 A 
BRANCH  38  42
ATOM     42  O   UNL     1      -8.427  -1.638  -1.610  1.00  0.00    +0.000 OA
ATOM     43  H   UNL     1      -8.779  -1.099  -2.337  1.00  0.00    +0.000 HD
ENDBRANCH  38  42
ENDBRANCH  34  35
ENDBRANCH  16  34
TORSDOF 4
