REMARK  Name = SANC00386.pdb
AUTHORGENERATED BY OPEN BABEL 2.3.2
REMARK  7 active torsions:
REMARK  status: ('A' for Active; 'I' for Inactive)
REMARK    1  A    between atoms: C_12  and  O_13
REMARK    2  A    between atoms: C_14  and  O_15
REMARK    3  A    between atoms: O_15  and  C_16
REMARK    4  A    between atoms: N_21  and  C_22
REMARK    5  A    between atoms: C_37  and  O_38
REMARK    6  A    between atoms: O_38  and  C_39
REMARK    7  A    between atoms: N_44  and  C_45
REMARK                            x       y       z     vdW  Elec       q    Type
REMARK                         _______ _______ _______ _____ _____    ______ ____
ROOT
ATOM      1  C   UNL     1       3.839  -1.116  -1.900  1.00  0.00    +0.000 C 
ATOM      2  C   UNL     1       2.378  -1.433  -2.335  1.00  0.00    +0.000 C 
ATOM      3  C   UNL     1       1.304  -1.619  -1.274  1.00  0.00    +0.000 A 
ATOM      4  C   UNL     1      -0.014  -1.829  -1.718  1.00  0.00    +0.000 A 
ATOM      5  C   UNL     1      -1.090  -1.811  -0.825  1.00  0.00    +0.000 A 
ATOM      6  C   UNL     1      -0.864  -1.607   0.534  1.00  0.00    +0.000 A 
ATOM      7  C   UNL     1       0.451  -1.513   0.996  1.00  0.00    +0.000 A 
ATOM      8  C   UNL     1       1.528  -1.530   0.103  1.00  0.00    +0.000 A 
ATOM      9  O   UNL     1      -1.830  -1.417   1.498  1.00  0.00    +0.000 OA
ATOM     10  C   UNL     1      -3.160  -1.520   1.160  1.00  0.00    +0.000 A 
ATOM     11  C   UNL     1      -3.718  -2.771   0.857  1.00  0.00    +0.000 A 
ATOM     12  C   UNL     1      -5.086  -2.918   0.604  1.00  0.00    +0.000 A 
ATOM     13  C   UNL     1      -5.915  -1.807   0.720  1.00  0.00    +0.000 A 
ATOM     14  C   UNL     1      -5.385  -0.555   1.090  1.00  0.00    +0.000 A 
ATOM     15  C   UNL     1      -6.354   0.570   1.391  1.00  0.00    +0.000 C 
ATOM     16  C   UNL     1      -5.723   1.864   1.928  1.00  0.00    +0.000 C 
ATOM     17  N   UNL     1      -4.442   1.624   2.597  1.00  0.00    +0.000 NA
ATOM     18  C   UNL     1      -3.930   2.822   3.251  1.00  0.00    +0.000 C 
ATOM     19  C   UNL     1      -3.461   0.996   1.666  1.00  0.00    +0.000 C 
ATOM     20  C   UNL     1      -3.177   1.863   0.390  1.00  0.00    +0.000 C 
ATOM     21  C   UNL     1      -1.762   1.839  -0.140  1.00  0.00    +0.000 A 
ATOM     22  C   UNL     1      -1.508   1.494  -1.467  1.00  0.00    +0.000 A 
ATOM     23  C   UNL     1      -0.195   1.435  -1.937  1.00  0.00    +0.000 A 
ATOM     24  C   UNL     1       0.890   1.712  -1.095  1.00  0.00    +0.000 A 
ATOM     25  O   UNL     1       2.111   1.400  -1.655  1.00  0.00    +0.000 OA
ATOM     26  C   UNL     1       3.256   1.275  -0.901  1.00  0.00    +0.000 A 
ATOM     27  C   UNL     1       3.665   2.302  -0.031  1.00  0.00    +0.000 A 
ATOM     28  O   UNL     1       2.789   3.302   0.320  1.00  0.00    +0.000 OA
ATOM     29  C   UNL     1       1.736   2.709   1.082  1.00  0.00    +0.000 C 
ATOM     30  C   UNL     1       0.643   2.212   0.184  1.00  0.00    +0.000 A 
ATOM     31  C   UNL     1      -0.684   2.241   0.661  1.00  0.00    +0.000 A 
ATOM     32  C   UNL     1       4.952   2.345   0.528  1.00  0.00    +0.000 A 
ATOM     33  C   UNL     1       5.849   1.333   0.214  1.00  0.00    +0.000 A 
ATOM     34  C   UNL     1       5.448   0.280  -0.619  1.00  0.00    +0.000 A 
ATOM     35  C   UNL     1       6.422  -0.812  -0.989  1.00  0.00    +0.000 C 
ATOM     36  C   UNL     1       6.229  -1.285  -2.445  1.00  0.00    +0.000 C 
ATOM     37  N   UNL     1       4.854  -1.206  -2.985  1.00  0.00    +0.000 NA
ATOM     38  C   UNL     1       4.640  -2.234  -3.994  1.00  0.00    +0.000 C 
ATOM     39  C   UNL     1       4.127   0.196  -1.140  1.00  0.00    +0.000 A 
ATOM     40  C   UNL     1      -3.993  -0.391   1.285  1.00  0.00    +0.000 A 
ENDROOT
BRANCH  11  41
ATOM     41  O   UNL     1      -2.923  -3.891   0.821  1.00  0.00    +0.000 OA
ATOM     42  H   UNL     1      -3.527  -4.629   0.616  1.00  0.00    +0.000 HD
ENDBRANCH  11  41
BRANCH  12  43
ATOM     43  O   UNL     1      -5.484  -4.194   0.289  1.00  0.00    +0.000 OA
ATOM     44  C   UNL     1      -6.868  -4.383   0.020  1.00  0.00    +0.000 C 
ENDBRANCH  12  43
BRANCH  32  45
ATOM     45  O   UNL     1       5.215   3.396   1.369  1.00  0.00    +0.000 OA
ATOM     46  C   UNL     1       6.554   3.555   1.815  1.00  0.00    +0.000 C 
ENDBRANCH  32  45
TORSDOF 3
