REMARK  Name = /srv/my_project/app/compsite/backup/Dave/CORINA_stuff/newPDBs/SANC00266.pdb
AUTHORGENERATED BY OPEN BABEL 2.3.2
REMARK  3 active torsions:
REMARK  status: ('A' for Active; 'I' for Inactive)
REMARK    1  A    between atoms: C_1  and  C_2
REMARK    2  A    between atoms: CA_13  and  C_14
REMARK    3  A    between atoms: C_14  and  O_15
REMARK                            x       y       z     vdW  Elec       q    Type
REMARK                         _______ _______ _______ _____ _____    ______ ____
ROOT
ATOM      1  C   UNL     1       0.590  -3.282   0.462  1.00  0.00    +0.000 C 
ATOM      2  C   UNL     1       0.017  -1.900   0.292  1.00  0.00    +0.000 A 
ATOM      3  C   UNL     1      -1.375  -1.726   0.504  1.00  0.00    +0.000 A 
ATOM      4  C   UNL     1      -1.953  -0.476   0.361  1.00  0.00    +0.000 A 
ATOM      5  C   UNL     1      -3.389  -0.097   0.540  1.00  0.00    +0.000 C 
ATOM      6  C   UNL     1      -3.427   1.416   0.249  1.00  0.00    +0.000 C 
ATOM      7  C   UNL     1      -2.002   1.791  -0.079  1.00  0.00    +0.000 C 
ATOM      8  O   UNL     1      -1.588   2.898  -0.374  1.00  0.00    +0.000 OA
ATOM      9  C   UNL     1      -1.171   0.610   0.008  1.00  0.00    +0.000 A 
ATOM     10  C   UNL     1       0.188   0.477  -0.207  1.00  0.00    +0.000 A 
ATOM     11  N   UNL     1       1.142   1.397  -0.556  1.00  0.00    +0.000 N 
ATOM     12  H   UNL     1       0.962   2.386  -0.700  1.00  0.00    +0.000 HD
ATOM     13  CA  UNL     1       2.369   0.785  -0.652  1.00  0.00    +0.000 A 
ATOM     14  C   UNL     1       2.186  -0.553  -0.357  1.00  0.00    +0.000 A 
ATOM     15  C   UNL     1       0.805  -0.768  -0.071  1.00  0.00    +0.000 A 
ENDROOT
BRANCH  13  16
ATOM     16  C   UNL     1       3.584   1.546  -1.022  1.00  0.00    +0.000 C 
BRANCH  16  17
ATOM     17  O   UNL     1       3.734   2.571  -0.053  1.00  0.00    +0.000 OA
ATOM     18  H   UNL     1       3.779   2.128   0.811  1.00  0.00    +0.000 HD
ENDBRANCH  16  17
ENDBRANCH  13  16
TORSDOF 2
