REMARK  Name = /srv/my_project/app/compsite/backup/Dave/CORINA_stuff/newPDBs/SANC00673.pdb
AUTHORGENERATED BY OPEN BABEL 2.3.2
REMARK  13 active torsions:
REMARK  status: ('A' for Active; 'I' for Inactive)
REMARK    1  A    between atoms: C_1  and  O_2
REMARK    2  A    between atoms: O_2  and  C_3
REMARK    3  A    between atoms: C_6  and  C_7
REMARK    4  A    between atoms: C_7  and  C_8
REMARK    5  A    between atoms: C_8  and  O_10
REMARK    6  A    between atoms: C_8  and  C_11
REMARK    7  A    between atoms: C_13  and  O_14
REMARK    8  A    between atoms: O_14  and  C_15
REMARK    9  A    between atoms: C_16  and  O_17
REMARK   10  A    between atoms: O_17  and  C_18
REMARK   11  A    between atoms: C_19  and  O_20
REMARK   12  A    between atoms: O_20  and  C_21
REMARK   13  A    between atoms: C_24  and  O_25
REMARK                            x       y       z     vdW  Elec       q    Type
REMARK                         _______ _______ _______ _____ _____    ______ ____
ROOT
ATOM      1  C   UNL     1      -0.641   0.491   2.555  1.00  0.00    +0.000 C 
ENDROOT
BRANCH   1   2
ATOM      2  C   UNL     1      -1.214   0.680   1.164  1.00  0.00    +0.000 A 
ATOM      3  C   UNL     1      -1.495  -0.437   0.365  1.00  0.00    +0.000 A 
ATOM      4  C   UNL     1      -1.985  -0.276  -0.931  1.00  0.00    +0.000 A 
ATOM      5  C   UNL     1      -2.257   1.008  -1.419  1.00  0.00    +0.000 A 
ATOM      6  C   UNL     1      -1.960   2.142  -0.645  1.00  0.00    +0.000 A 
ATOM      7  C   UNL     1      -1.442   1.967   0.642  1.00  0.00    +0.000 A 
BRANCH   4   8
ATOM      8  O   UNL     1      -2.220  -1.435  -1.625  1.00  0.00    +0.000 OA
ATOM      9  C   UNL     1      -1.556  -1.458  -2.890  1.00  0.00    +0.000 C 
ENDBRANCH   4   8
BRANCH   5  10
ATOM     10  O   UNL     1      -2.780   1.171  -2.681  1.00  0.00    +0.000 OA
ATOM     11  C   UNL     1      -4.205   1.177  -2.612  1.00  0.00    +0.000 C 
ENDBRANCH   5  10
BRANCH   6  12
ATOM     12  O   UNL     1      -2.229   3.357  -1.220  1.00  0.00    +0.000 OA
ATOM     13  C   UNL     1      -1.742   4.514  -0.554  1.00  0.00    +0.000 C 
ENDBRANCH   6  12
ENDBRANCH   1   2
BRANCH   1  14
ATOM     14  O   UNL     1      -1.366   1.315   3.475  1.00  0.00    +0.000 OA
ATOM     15  H   UNL     1      -2.307   1.241   3.236  1.00  0.00    +0.000 HD
ENDBRANCH   1  14
BRANCH   1  16
ATOM     16  C   UNL     1       0.855   0.835   2.654  1.00  0.00    +0.000 C 
BRANCH  16  20
ATOM     17  C   UNL     1       3.373  -2.110   0.722  1.00  0.00    +0.000 A 
ATOM     18  C   UNL     1       2.945  -2.305   2.034  1.00  0.00    +0.000 A 
ATOM     19  C   UNL     1       2.137  -1.345   2.658  1.00  0.00    +0.000 A 
ATOM     20  C   UNL     1       1.749  -0.179   1.981  1.00  0.00    +0.000 A 
ATOM     21  C   UNL     1       2.179   0.013   0.663  1.00  0.00    +0.000 A 
ATOM     22  C   UNL     1       2.979  -0.946   0.053  1.00  0.00    +0.000 A 
BRANCH  17  24
ATOM     23  C   UNL     1       4.585  -4.152   0.642  1.00  0.00    +0.000 C 
ATOM     24  O   UNL     1       4.160  -2.961  -0.010  1.00  0.00    +0.000 OA
ENDBRANCH  17  24
BRANCH  22  25
ATOM     25  O   UNL     1       3.379  -0.726  -1.238  1.00  0.00    +0.000 OA
ATOM     26  H   UNL     1       3.922  -1.505  -1.466  1.00  0.00    +0.000 HD
ENDBRANCH  22  25
ENDBRANCH  16  20
ENDBRANCH   1  16
TORSDOF 9
