REMARK  Name = /srv/my_project/app/compsite/backup/Dave/CORINA_stuff/newPDBs/SANC00127.pdb
AUTHORGENERATED BY OPEN BABEL 2.3.2
REMARK  1 active torsions:
REMARK  status: ('A' for Active; 'I' for Inactive)
REMARK    1  A    between atoms: C_10  and  O_11
REMARK                            x       y       z     vdW  Elec       q    Type
REMARK                         _______ _______ _______ _____ _____    ______ ____
ROOT
ATOM      1  O   UNL     1       2.430  -3.555  -0.765  1.00  0.00    +0.000 OA
ATOM      2  C   UNL     1       1.978  -2.435  -0.561  1.00  0.00    +0.000 C 
ATOM      3  C   UNL     1       0.427  -2.074  -0.552  1.00  0.00    +0.000 C 
ATOM      4  N   UNL     1      -0.293  -3.197   0.044  1.00  0.00    +0.000 NA
ATOM      5  C   UNL     1      -1.732  -3.055  -0.055  1.00  0.00    +0.000 C 
ATOM      6  C   UNL     1      -2.168  -1.847   0.751  1.00  0.00    +0.000 C 
ATOM      7  C   UNL     1      -1.488  -0.525   0.306  1.00  0.00    +0.000 C 
ATOM      8  C   UNL     1      -2.125  -0.018  -0.984  1.00  0.00    +0.000 C 
ATOM      9  C   UNL     1      -2.921   1.064  -1.057  1.00  0.00    +0.000 C 
ATOM     10  C   UNL     1      -3.302   1.913   0.116  1.00  0.00    +0.000 C 
ATOM     11  C   UNL     1      -2.597   1.507   1.380  1.00  0.00    +0.000 C 
ATOM     12  C   UNL     1      -1.784   0.438   1.471  1.00  0.00    +0.000 C 
ATOM     13  C   UNL     1       0.025  -0.692   0.055  1.00  0.00    +0.000 C 
ATOM     14  C   UNL     1       0.990   0.248   0.202  1.00  0.00    +0.000 C 
ATOM     15  N   UNL     1       0.717   1.600   0.595  1.00  0.00    +0.000 NA
ATOM     16  H   UNL     1      -0.212   1.886   0.263  1.00  0.00    +0.000 HD
ATOM     17  C   UNL     1       1.722   2.614   0.051  1.00  0.00    +0.000 C 
ATOM     18  C   UNL     1       3.182   2.263   0.425  1.00  0.00    +0.000 C 
ATOM     19  C   UNL     1       3.428   0.837   0.099  1.00  0.00    +0.000 A 
ATOM     20  C   UNL     1       4.568   0.104  -0.157  1.00  0.00    +0.000 A 
ATOM     21  N   UNL     1       4.191  -1.203  -0.416  1.00  0.00    +0.000 N 
ATOM     22  H   UNL     1       4.815  -1.973  -0.639  1.00  0.00    +0.000 HD
ATOM     23  C   UNL     1       2.822  -1.294  -0.344  1.00  0.00    +0.000 A 
ATOM     24  C   UNL     1       2.356  -0.059  -0.007  1.00  0.00    +0.000 A 
ATOM     25  H   UNL     1       0.017  -3.401   0.993  1.00  0.00    +0.000 HD
ATOM     26  H   UNL     1       0.695   1.662   1.621  1.00  0.00    +0.000 HD
ENDROOT
BRANCH  10  27
ATOM     27  O   UNL     1      -4.693   1.762   0.299  1.00  0.00    +0.000 OA
ATOM     28  H   UNL     1      -4.967   2.300   1.059  1.00  0.00    +0.000 HD
ENDBRANCH  10  27
TORSDOF 1
