REMARK  Name = /srv/my_project/app/compsite/backup/Dave/CORINA_stuff/newPDBs/SANC00243.pdb
AUTHORGENERATED BY OPEN BABEL 2.3.2
REMARK  7 active torsions:
REMARK  status: ('A' for Active; 'I' for Inactive)
REMARK    1  A    between atoms: C_1  and  O_2
REMARK    2  A    between atoms: O_2  and  C_3
REMARK    3  A    between atoms: C_6  and  C_7
REMARK    4  A    between atoms: C_12  and  O_13
REMARK    5  A    between atoms: O_13  and  C_14
REMARK    6  A    between atoms: C_15  and  O_16
REMARK    7  A    between atoms: C_18  and  O_19
REMARK                            x       y       z     vdW  Elec       q    Type
REMARK                         _______ _______ _______ _____ _____    ______ ____
ROOT
ATOM      1  C   UNL     1      -1.346   1.621   0.139  1.00  0.00    +0.000 C 
ATOM      2  C   UNL     1      -0.214   1.103   0.646  1.00  0.00    +0.000 C 
ATOM      3  C   UNL     1       0.060  -0.315   1.031  1.00  0.00    +0.000 C 
ATOM      4  O   UNL     1       1.312  -0.766   0.506  1.00  0.00    +0.000 OA
ATOM      5  C   UNL     1       2.376   0.017   0.893  1.00  0.00    +0.000 A 
ATOM      6  C   UNL     1       3.634  -0.598   1.013  1.00  0.00    +0.000 A 
ATOM      7  C   UNL     1       4.737   0.180   1.399  1.00  0.00    +0.000 A 
ATOM      8  C   UNL     1       4.600   1.554   1.610  1.00  0.00    +0.000 A 
ATOM      9  C   UNL     1       3.356   2.158   1.448  1.00  0.00    +0.000 A 
ATOM     10  C   UNL     1       2.240   1.393   1.096  1.00  0.00    +0.000 A 
ATOM     11  C   UNL     1       0.923   2.024   0.893  1.00  0.00    +0.000 C 
ATOM     12  O   UNL     1       0.807   3.245   0.947  1.00  0.00    +0.000 OA
ENDROOT
BRANCH   1  16
ATOM     13  C   UNL     1      -4.853  -0.683  -0.661  1.00  0.00    +0.000 A 
ATOM     14  C   UNL     1      -4.759   0.092   0.498  1.00  0.00    +0.000 A 
ATOM     15  C   UNL     1      -3.615   0.850   0.760  1.00  0.00    +0.000 A 
ATOM     16  C   UNL     1      -2.549   0.837  -0.141  1.00  0.00    +0.000 A 
ATOM     17  C   UNL     1      -2.640   0.065  -1.304  1.00  0.00    +0.000 A 
ATOM     18  C   UNL     1      -3.788  -0.693  -1.562  1.00  0.00    +0.000 A 
BRANCH  13  20
ATOM     19  C   UNL     1      -6.175  -2.172  -1.959  1.00  0.00    +0.000 C 
ATOM     20  O   UNL     1      -6.025  -1.375  -0.791  1.00  0.00    +0.000 OA
ENDBRANCH  13  20
ENDBRANCH   1  16
BRANCH   6  21
ATOM     21  O   UNL     1       3.655  -1.954   0.804  1.00  0.00    +0.000 OA
ATOM     22  C   UNL     1       4.821  -2.466   0.169  1.00  0.00    +0.000 C 
ENDBRANCH   6  21
BRANCH   7  23
ATOM     23  O   UNL     1       5.962  -0.395   1.601  1.00  0.00    +0.000 OA
ATOM     24  H   UNL     1       6.579   0.276   1.937  1.00  0.00    +0.000 HD
ENDBRANCH   7  23
BRANCH   9  25
ATOM     25  O   UNL     1       3.305   3.511   1.651  1.00  0.00    +0.000 OA
ATOM     26  H   UNL     1       2.391   3.817   1.447  1.00  0.00    +0.000 HD
ENDBRANCH   9  25
TORSDOF 5
