REMARK  Name = /srv/my_project/app/compsite/backup/Dave/CORINA_stuff/newPDBs/SANC00110.pdb
AUTHORGENERATED BY OPEN BABEL 2.3.2
REMARK  7 active torsions:
REMARK  status: ('A' for Active; 'I' for Inactive)
REMARK    1  A    between atoms: C_3  and  C_5
REMARK    2  A    between atoms: C_5  and  O_6
REMARK    3  A    between atoms: C_12  and  O_14
REMARK    4  A    between atoms: O_14  and  C_15
REMARK    5  A    between atoms: C_15  and  C_17
REMARK    6  A    between atoms: C_17  and  C_18
REMARK    7  A    between atoms: C_19  and  C_20
REMARK                            x       y       z     vdW  Elec       q    Type
REMARK                         _______ _______ _______ _____ _____    ______ ____
ROOT
ATOM      1  C   UNL     1      -2.119  -0.647   0.003  1.00  0.00    +0.000 C 
ATOM      2  C   UNL     1      -2.391   0.829   0.254  1.00  0.00    +0.000 C 
ATOM      3  C   UNL     1      -1.768   1.526  -0.948  1.00  0.00    +0.000 C 
ATOM      4  C   UNL     1      -1.748   0.464  -2.050  1.00  0.00    +0.000 C 
ATOM      5  N   UNL     1      -2.301  -0.773  -1.465  1.00  0.00    +0.000 NA
ATOM      6  C   UNL     1      -1.557  -1.978  -1.873  1.00  0.00    +0.000 C 
ATOM      7  C   UNL     1      -0.795  -2.485  -0.647  1.00  0.00    +0.000 C 
ATOM      8  C   UNL     1      -0.754  -1.288   0.294  1.00  0.00    +0.000 C 
ENDROOT
BRANCH   2   9
ATOM      9  C   UNL     1      -1.994   1.372   1.621  1.00  0.00    +0.000 C 
BRANCH   9  10
ATOM     10  O   UNL     1      -0.594   1.364   1.830  1.00  0.00    +0.000 OA
ATOM     11  H   UNL     1      -0.431   1.727   2.717  1.00  0.00    +0.000 HD
ENDBRANCH   9  10
ENDBRANCH   2   9
BRANCH   8  12
ATOM     12  O   UNL     1       0.349  -0.449  -0.076  1.00  0.00    +0.000 OA
BRANCH  12  13
ATOM     13  C   UNL     1       1.524  -0.723   0.542  1.00  0.00    +0.000 C 
ATOM     14  O   UNL     1       1.730  -1.641   1.321  1.00  0.00    +0.000 OA
BRANCH  13  15
ATOM     15  C   UNL     1       2.556   0.253   0.090  1.00  0.00    +0.000 C 
ATOM     16  C   UNL     1       2.497   0.668  -1.351  1.00  0.00    +0.000 C 
ATOM     17  C   UNL     1       3.522   0.692   0.921  1.00  0.00    +0.000 C 
ATOM     18  C   UNL     1       3.686   0.388   2.377  1.00  0.00    +0.000 C 
ENDBRANCH  13  15
ENDBRANCH  12  13
ENDBRANCH   8  12
TORSDOF 5
