REMARK  Name = CC3=CC(=O)[C@H](OC(=O)c1ccoc1)[C@@]4(C)[C@@H](OC(=O)c2ccoc2)C[C@H]5C[C@]34OC...
REMARK  10 active torsions:
REMARK  status: ('A' for Active; 'I' for Inactive)
REMARK    1  A    between atoms: C_1  and  C_22
REMARK    2  A    between atoms: C_2  and  C_31
REMARK    3  A    between atoms: C_3  and  C_31
REMARK    4  A    between atoms: C_4  and  C_32
REMARK    5  A    between atoms: O_17  and  C_24
REMARK    6  A    between atoms: O_17  and  C_29
REMARK    7  A    between atoms: O_18  and  C_25
REMARK    8  A    between atoms: O_18  and  C_30
REMARK    9  A    between atoms: C_24  and  C_26
REMARK   10  A    between atoms: C_25  and  C_27
REMARK                            x       y       z     vdW  Elec       q    Type
REMARK                         _______ _______ _______ _____ _____    ______ ____
ROOT
ATOM      1  C   UNL     1      -2.201   4.122  -0.367  1.00  0.00    +0.000 C 
ATOM      2  C   UNL     1       2.638   1.849  -1.038  1.00  0.00    +0.000 C 
ATOM      3  C   UNL     1       1.608   4.071  -0.902  1.00  0.00    +0.000 C 
ATOM      4  C   UNL     1      -1.652   0.611   2.250  1.00  0.00    +0.000 C 
ATOM      5  O   UNL     1      -3.897  -0.352  -0.610  1.00  0.00    +0.000 OA
ATOM      6  C   UNL     1      -3.032   1.821  -0.537  1.00  0.00    +0.000 C 
ATOM      7  C   UNL     1       1.620   1.147   1.764  1.00  0.00    +0.000 C 
ATOM      8  C   UNL     1       0.013   2.999   1.403  1.00  0.00    +0.000 C 
ATOM      9  O   UNL     1       0.211   2.096  -0.779  1.00  0.00    +0.000 OA
ATOM     10  C   UNL     1      -2.027   2.640  -0.175  1.00  0.00    +0.000 C 
ATOM     11  C   UNL     1      -2.899   0.346  -0.448  1.00  0.00    +0.000 C 
ATOM     12  C   UNL     1       1.449   2.560   1.159  1.00  0.00    +0.000 C 
ATOM     13  C   UNL     1       0.600   0.077   1.295  1.00  0.00    +0.000 C 
ATOM     14  C   UNL     1      -1.509  -0.214  -0.152  1.00  0.00    +0.000 C 
ATOM     15  C   UNL     1       1.496   2.624  -0.377  1.00  0.00    +0.000 C 
ATOM     16  C   UNL     1      -0.812   0.653   0.933  1.00  0.00    +0.000 C 
ATOM     17  C   UNL     1      -0.698   2.118   0.365  1.00  0.00    +0.000 C 
ENDROOT
BRANCH  13  18
ATOM     18  O   UNL     1       1.132  -0.660   0.175  1.00  0.00    +0.000 OA
BRANCH  18  20
ATOM     19  O   UNL     1       2.359  -1.986   1.585  1.00  0.00    +0.000 OA
ATOM     20  C   UNL     1       1.963  -1.705   0.461  1.00  0.00    +0.000 C 
BRANCH  20  25
ATOM     21  C   UNL     1       2.516  -3.269  -2.807  1.00  0.00    +0.000 A 
ATOM     22  C   UNL     1       1.901  -2.280  -2.076  1.00  0.00    +0.000 A 
ATOM     23  C   UNL     1       3.158  -3.550  -0.742  1.00  0.00    +0.000 A 
ATOM     24  O   UNL     1       3.286  -4.043  -2.000  1.00  0.00    +0.000 OA
ATOM     25  C   UNL     1       2.316  -2.457  -0.724  1.00  0.00    +0.000 A 
ENDBRANCH  20  25
ENDBRANCH  18  20
ENDBRANCH  13  18
BRANCH  14  26
ATOM     26  O   UNL     1      -1.608  -1.575   0.298  1.00  0.00    +0.000 OA
BRANCH  26  28
ATOM     27  O   UNL     1      -1.605  -2.264  -1.891  1.00  0.00    +0.000 OA
ATOM     28  C   UNL     1      -1.675  -2.512  -0.693  1.00  0.00    +0.000 C 
BRANCH  28  33
ATOM     29  C   UNL     1      -1.913  -6.093   0.019  1.00  0.00    +0.000 A 
ATOM     30  C   UNL     1      -1.818  -5.082  -0.907  1.00  0.00    +0.000 A 
ATOM     31  C   UNL     1      -1.860  -4.231   1.153  1.00  0.00    +0.000 A 
ATOM     32  O   UNL     1      -1.939  -5.581   1.276  1.00  0.00    +0.000 OA
ATOM     33  C   UNL     1      -1.781  -3.860  -0.174  1.00  0.00    +0.000 A 
ENDBRANCH  28  33
ENDBRANCH  26  28
ENDBRANCH  14  26
TORSDOF 6
