REMARK  Name = /srv/my_project/app/compsite/backup/Dave/CORINA_stuff/newPDBs/SANC00482.pdb
AUTHORGENERATED BY OPEN BABEL 2.3.2
REMARK  17 active torsions:
REMARK  status: ('A' for Active; 'I' for Inactive)
REMARK    1  A    between atoms: C_1  and  C_2
REMARK    2  A    between atoms: C_6  and  C_78
REMARK    3  A    between atoms: C_15  and  C_76
REMARK    4  A    between atoms: C_16  and  O_75
REMARK    5  A    between atoms: C_27  and  C_74
REMARK    6  A    between atoms: C_34  and  C_70
REMARK    7  A    between atoms: C_45  and  O_69
REMARK    8  A    between atoms: C_47  and  C_68
REMARK    9  A    between atoms: C_52  and  O_67
REMARK   10  A    between atoms: C_53  and  C_66
REMARK   11  A    between atoms: C_57  and  O_65
REMARK   12  A    between atoms: C_60  and  C_62
REMARK   13  A    between atoms: C_60  and  C_63
REMARK   14  A    between atoms: C_63  and  O_64
REMARK   15  A    between atoms: C_76  and  O_77
REMARK   16  A    between atoms: C_80  and  C_81
REMARK   17  A    between atoms: C_80  and  C_82
REMARK                            x       y       z     vdW  Elec       q    Type
REMARK                         _______ _______ _______ _____ _____    ______ ____
ROOT
ATOM      1  C   UNL     1      13.237  -1.675  -2.803  1.00  0.00    +0.000 C 
ATOM      2  C   UNL     1      13.591  -0.932  -1.513  1.00  0.00    +0.000 C 
ATOM      3  C   UNL     1      12.646  -1.307  -0.377  1.00  0.00    +0.000 C 
ATOM      4  C   UNL     1      11.536  -0.276  -0.501  1.00  0.00    +0.000 C 
ATOM      5  C   UNL     1      10.748   0.000   0.781  1.00  0.00    +0.000 C 
ATOM      6  C   UNL     1       9.472   0.654   0.227  1.00  0.00    +0.000 C 
ATOM      7  C   UNL     1       9.345  -0.052  -1.132  1.00  0.00    +0.000 C 
ATOM      8  O   UNL     1      10.551  -0.742  -1.427  1.00  0.00    +0.000 OA
ATOM      9  C   UNL     1       8.232  -1.024  -0.937  1.00  0.00    +0.000 C 
ATOM     10  C   UNL     1       7.510  -0.736   0.155  1.00  0.00    +0.000 C 
ATOM     11  C   UNL     1       8.088   0.439   0.929  1.00  0.00    +0.000 C 
ATOM     12  C   UNL     1       7.109   1.613   0.625  1.00  0.00    +0.000 C 
ATOM     13  C   UNL     1       5.644   1.267   0.978  1.00  0.00    +0.000 C 
ATOM     14  C   UNL     1       5.142  -0.060   0.344  1.00  0.00    +0.000 C 
ATOM     15  C   UNL     1       6.147  -1.235   0.554  1.00  0.00    +0.000 C 
ATOM     16  C   UNL     1       5.686  -2.486  -0.209  1.00  0.00    +0.000 C 
ATOM     17  C   UNL     1       4.270  -2.899   0.179  1.00  0.00    +0.000 C 
ATOM     18  C   UNL     1       3.279  -1.747  -0.029  1.00  0.00    +0.000 C 
ATOM     19  C   UNL     1       3.675  -0.459   0.761  1.00  0.00    +0.000 C 
ATOM     20  C   UNL     1       2.682   0.662   0.343  1.00  0.00    +0.000 C 
ATOM     21  C   UNL     1       1.233   0.251   0.319  1.00  0.00    +0.000 A 
ATOM     22  N   UNL     1       0.323   1.257   0.320  1.00  0.00    +0.000 NA
ATOM     23  C   UNL     1      -0.983   0.899   0.255  1.00  0.00    +0.000 A 
ATOM     24  C   UNL     1      -1.373  -0.438   0.202  1.00  0.00    +0.000 A 
ATOM     25  C   UNL     1      -2.818  -0.846   0.094  1.00  0.00    +0.000 C 
ATOM     26  C   UNL     1      -3.842   0.243   0.524  1.00  0.00    +0.000 C 
ATOM     27  C   UNL     1      -3.393   1.585  -0.136  1.00  0.00    +0.000 C 
ATOM     28  C   UNL     1      -1.987   2.016   0.307  1.00  0.00    +0.000 C 
ATOM     29  C   UNL     1      -4.400   2.721   0.086  1.00  0.00    +0.000 C 
ATOM     30  C   UNL     1      -5.785   2.342  -0.432  1.00  0.00    +0.000 C 
ATOM     31  C   UNL     1      -6.297   1.039   0.200  1.00  0.00    +0.000 C 
ATOM     32  C   UNL     1      -5.274  -0.119  -0.026  1.00  0.00    +0.000 C 
ATOM     33  C   UNL     1      -5.816  -1.489   0.467  1.00  0.00    +0.000 C 
ATOM     34  C   UNL     1      -7.236  -1.799  -0.053  1.00  0.00    +0.000 C 
ATOM     35  C   UNL     1      -8.249  -0.668   0.278  1.00  0.00    +0.000 C 
ATOM     36  C   UNL     1      -7.637   0.586  -0.321  1.00  0.00    +0.000 C 
ATOM     37  C   UNL     1      -8.316   1.008  -1.397  1.00  0.00    +0.000 C 
ATOM     38  C   UNL     1      -9.434   0.086  -1.750  1.00  0.00    +0.000 C 
ATOM     39  C   UNL     1      -9.617  -0.809  -0.498  1.00  0.00    +0.000 C 
ATOM     40  C   UNL     1     -10.890  -0.200   0.111  1.00  0.00    +0.000 C 
ATOM     41  C   UNL     1     -11.642   0.318  -1.124  1.00  0.00    +0.000 C 
ATOM     42  O   UNL     1     -10.620   0.846  -1.984  1.00  0.00    +0.000 OA
ATOM     43  C   UNL     1     -12.492  -0.686  -1.941  1.00  0.00    +0.000 C 
ATOM     44  C   UNL     1     -13.905  -0.395  -1.488  1.00  0.00    +0.000 C 
ATOM     45  C   UNL     1     -13.864   1.095  -1.150  1.00  0.00    +0.000 C 
ATOM     46  O   UNL     1     -12.520   1.378  -0.702  1.00  0.00    +0.000 OA
ATOM     47  C   UNL     1     -14.155   1.995  -2.358  1.00  0.00    +0.000 C 
ATOM     48  C   UNL     1     -11.712  -1.114   1.014  1.00  0.00    +0.000 C 
ATOM     49  C   UNL     1      -8.458  -0.556   1.802  1.00  0.00    +0.000 C 
ATOM     50  C   UNL     1      -3.845   0.332   2.072  1.00  0.00    +0.000 C 
ATOM     51  N   UNL     1      -0.463  -1.444   0.189  1.00  0.00    +0.000 NA
ATOM     52  C   UNL     1       0.845  -1.085   0.242  1.00  0.00    +0.000 A 
ATOM     53  C   UNL     1       1.845  -2.205   0.278  1.00  0.00    +0.000 C 
ATOM     54  C   UNL     1       3.567  -0.666   2.294  1.00  0.00    +0.000 C 
ATOM     55  C   UNL     1      11.491   0.872   1.787  1.00  0.00    +0.000 C 
ATOM     56  O   UNL     1      12.135   0.916  -1.023  1.00  0.00    +0.000 OA
ATOM     57  C   UNL     1      13.436   0.603  -1.562  1.00  0.00    +0.000 C 
ATOM     58  C   UNL     1      13.532   1.229  -2.953  1.00  0.00    +0.000 C 
ATOM     59  C   UNL     1      14.463   1.279  -0.640  1.00  0.00    +0.000 C 
ENDROOT
BRANCH  43  60
ATOM     60  O   UNL     1     -12.425  -0.426  -3.353  1.00  0.00    +0.000 OA
ATOM     61  H   UNL     1     -11.690   0.211  -3.468  1.00  0.00    +0.000 HD
ENDBRANCH  43  60
BRANCH  39  62
ATOM     62  O   UNL     1      -9.882  -2.157  -0.897  1.00  0.00    +0.000 OA
ATOM     63  H   UNL     1      -9.455  -2.748  -0.239  1.00  0.00    +0.000 HD
ENDBRANCH  39  62
BRANCH  34  64
ATOM     64  O   UNL     1      -7.699  -3.032   0.507  1.00  0.00    +0.000 OA
ATOM     65  H   UNL     1      -7.017  -3.705   0.328  1.00  0.00    +0.000 HD
ENDBRANCH  34  64
BRANCH  12  66
ATOM     66  O   UNL     1       7.494   2.777   1.358  1.00  0.00    +0.000 OA
ATOM     67  H   UNL     1       6.927   3.510   1.059  1.00  0.00    +0.000 HD
ENDBRANCH  12  66
BRANCH  45  68
ATOM     68  C   UNL     1     -14.823   1.429   0.008  1.00  0.00    +0.000 C 
BRANCH  68  69
ATOM     69  O   UNL     1     -14.667   2.786   0.423  1.00  0.00    +0.000 OA
ATOM     70  H   UNL     1     -13.703   2.953   0.411  1.00  0.00    +0.000 HD
ENDBRANCH  68  69
ENDBRANCH  45  68
BRANCH  11  71
ATOM     71  C   UNL     1       8.181   0.228   2.463  1.00  0.00    +0.000 C 
BRANCH  71  72
ATOM     72  O   UNL     1       8.839  -0.982   2.827  1.00  0.00    +0.000 OA
ATOM     73  H   UNL     1       8.878  -1.002   3.798  1.00  0.00    +0.000 HD
ENDBRANCH  71  72
ENDBRANCH  11  71
TORSDOF 8
