REMARK  Name = SANCDB_00847_minRM1.pdb
AUTHORGENERATED BY OPEN BABEL 2.3.2
REMARK  12 active torsions:
REMARK  status: ('A' for Active; 'I' for Inactive)
REMARK    1  A    between atoms: C_3  and  O_33
REMARK    2  A    between atoms: C_4  and  O_32
REMARK    3  A    between atoms: C_6  and  C_7
REMARK    4  A    between atoms: C_8  and  O_20
REMARK    5  A    between atoms: C_12  and  O_19
REMARK    6  A    between atoms: C_14  and  O_18
REMARK    7  A    between atoms: O_20  and  C_21
REMARK    8  A    between atoms: C_22  and  O_31
REMARK    9  A    between atoms: C_23  and  O_30
REMARK   10  A    between atoms: C_24  and  O_29
REMARK   11  A    between atoms: C_25  and  C_27
REMARK   12  A    between atoms: C_27  and  O_28
REMARK                            x       y       z     vdW  Elec       q    Type
REMARK                         _______ _______ _______ _____ _____    ______ ____
ROOT
ATOM      1  C   UNL     1      -2.032  -0.013  -0.111  1.00  0.00    +0.000 A 
ATOM      2  C   UNL     1      -0.915  -0.154   0.627  1.00  0.00    +0.000 A 
ATOM      3  C   UNL     1      -0.761  -1.401   1.443  1.00  0.00    +0.000 A 
ATOM      4  O   UNL     1       0.225  -1.568   2.151  1.00  0.00    +0.000 OA
ATOM      5  C   UNL     1      -1.845  -2.407   1.336  1.00  0.00    +0.000 A 
ATOM      6  C   UNL     1      -1.831  -3.631   2.024  1.00  0.00    +0.000 A 
ATOM      7  C   UNL     1      -2.885  -4.542   1.884  1.00  0.00    +0.000 A 
ATOM      8  C   UNL     1      -3.952  -4.224   1.052  1.00  0.00    +0.000 A 
ATOM      9  C   UNL     1      -3.981  -3.020   0.362  1.00  0.00    +0.000 A 
ATOM     10  C   UNL     1      -2.926  -2.115   0.506  1.00  0.00    +0.000 A 
ATOM     11  O   UNL     1      -3.035  -0.955  -0.213  1.00  0.00    +0.000 OA
ENDROOT
BRANCH   1  17
ATOM     12  C   UNL     1      -2.250   2.477  -0.402  1.00  0.00    +0.000 A 
ATOM     13  C   UNL     1      -2.478   3.600  -1.205  1.00  0.00    +0.000 A 
ATOM     14  C   UNL     1      -2.744   3.423  -2.555  1.00  0.00    +0.000 A 
ATOM     15  C   UNL     1      -2.787   2.142  -3.099  1.00  0.00    +0.000 A 
ATOM     16  C   UNL     1      -2.563   1.022  -2.311  1.00  0.00    +0.000 A 
ATOM     17  C   UNL     1      -2.280   1.179  -0.946  1.00  0.00    +0.000 A 
BRANCH  15  18
ATOM     18  O   UNL     1      -3.050   1.976  -4.429  1.00  0.00    +0.000 OA
ATOM     19  H   UNL     1      -3.171   2.884  -4.772  1.00  0.00    +0.000 HD
ENDBRANCH  15  18
BRANCH  14  20
ATOM     20  O   UNL     1      -2.971   4.478  -3.393  1.00  0.00    +0.000 OA
ATOM     21  H   UNL     1      -2.896   5.299  -2.876  1.00  0.00    +0.000 HD
ENDBRANCH  14  20
ENDBRANCH   1  17
BRANCH   8  22
ATOM     22  O   UNL     1      -5.002  -5.075   0.881  1.00  0.00    +0.000 OA
ATOM     23  H   UNL     1      -4.861  -5.877   1.410  1.00  0.00    +0.000 HD
ENDBRANCH   8  22
BRANCH   6  24
ATOM     24  O   UNL     1      -0.787  -3.964   2.840  1.00  0.00    +0.000 OA
ATOM     25  H   UNL     1      -0.941  -4.819   3.271  1.00  0.00    +0.000 HD
ENDBRANCH   6  24
BRANCH   2  26
ATOM     26  O   UNL     1       0.041   0.850   0.674  1.00  0.00    +0.000 OA
BRANCH  26  27
ATOM     27  C   UNL     1       1.393   0.421   0.458  1.00  0.00    +0.000 C 
ATOM     28  C   UNL     1       1.954   1.228  -0.734  1.00  0.00    +0.000 C 
ATOM     29  C   UNL     1       3.486   1.116  -0.816  1.00  0.00    +0.000 C 
ATOM     30  C   UNL     1       4.053   0.030   0.110  1.00  0.00    +0.000 C 
ATOM     31  C   UNL     1       3.482   0.133   1.552  1.00  0.00    +0.000 C 
ATOM     32  O   UNL     1       2.176   0.720   1.609  1.00  0.00    +0.000 OA
BRANCH  30  33
ATOM     33  O   UNL     1       5.484   0.076   0.035  1.00  0.00    +0.000 OA
ATOM     34  H   UNL     1       5.830  -0.179   0.919  1.00  0.00    +0.000 HD
ENDBRANCH  30  33
BRANCH  29  35
ATOM     35  O   UNL     1       4.096   2.373  -0.470  1.00  0.00    +0.000 OA
ATOM     36  H   UNL     1       5.056   2.182  -0.466  1.00  0.00    +0.000 HD
ENDBRANCH  29  35
BRANCH  28  37
ATOM     37  O   UNL     1       1.370   0.750  -1.960  1.00  0.00    +0.000 OA
ATOM     38  H   UNL     1       0.457   1.094  -1.981  1.00  0.00    +0.000 HD
ENDBRANCH  28  37
BRANCH  31  39
ATOM     39  C   UNL     1       4.373   0.903   2.534  1.00  0.00    +0.000 C 
BRANCH  39  40
ATOM     40  O   UNL     1       5.651   0.276   2.656  1.00  0.00    +0.000 OA
ATOM     41  H   UNL     1       6.118   0.753   3.368  1.00  0.00    +0.000 HD
ENDBRANCH  39  40
ENDBRANCH  31  39
ENDBRANCH  26  27
ENDBRANCH   2  26
TORSDOF 12
