REMARK  Name = SANCDB_00799_minRM1.pdb
AUTHORGENERATED BY OPEN BABEL 2.3.2
REMARK  5 active torsions:
REMARK  status: ('A' for Active; 'I' for Inactive)
REMARK    1  A    between atoms: C_1  and  C_2
REMARK    2  A    between atoms: C_7  and  C_8
REMARK    3  A    between atoms: C_7  and  O_9
REMARK    4  A    between atoms: O_9  and  C_10
REMARK    5  A    between atoms: C_10  and  C_12
REMARK                            x       y       z     vdW  Elec       q    Type
REMARK                         _______ _______ _______ _____ _____    ______ ____
ROOT
ATOM      1  C   UNL     1      -1.984   4.347   0.886  1.00  0.00    +0.000 C 
ATOM      2  C   UNL     1      -0.758   3.565   1.243  1.00  0.00    +0.000 C 
ATOM      3  C   UNL     1      -0.359   2.380   0.737  1.00  0.00    +0.000 C 
ATOM      4  C   UNL     1       0.886   1.673   1.214  1.00  0.00    +0.000 C 
ATOM      5  C   UNL     1       1.945   1.453   0.136  1.00  0.00    +0.000 C 
ATOM      6  C   UNL     1       2.262   2.446  -0.723  1.00  0.00    +0.000 C 
ATOM      7  C   UNL     1       2.623   0.061   0.107  1.00  0.00    +0.000 C 
ATOM      8  C   UNL     1       3.268  -0.238   1.472  1.00  0.00    +0.000 C 
ATOM      9  C   UNL     1       1.547  -0.975  -0.341  1.00  0.00    +0.000 C 
ATOM     10  O   UNL     1       1.245  -1.199  -1.510  1.00  0.00    +0.000 OA
ATOM     11  O   UNL     1       0.964  -1.580   0.732  1.00  0.00    +0.000 OA
ATOM     12  C   UNL     1       0.183  -2.739   0.437  1.00  0.00    +0.000 C 
ATOM     13  C   UNL     1      -1.278  -2.446   0.412  1.00  0.00    +0.000 C 
ATOM     14  C   UNL     1      -2.184  -2.814   1.328  1.00  0.00    +0.000 C 
ATOM     15  C   UNL     1      -3.564  -2.565   0.829  1.00  0.00    +0.000 C 
ATOM     16  N   UNL     1      -3.384  -2.348  -0.620  1.00  0.00    +0.000 NA
ATOM     17  C   UNL     1      -1.966  -1.893  -0.800  1.00  0.00    +0.000 C 
ATOM     18  C   UNL     1      -2.029  -0.355  -1.010  1.00  0.00    +0.000 C 
ATOM     19  O   UNL     1      -1.255   0.394  -0.062  1.00  0.00    +0.000 OA
ATOM     20  C   UNL     1      -1.127   1.715  -0.348  1.00  0.00    +0.000 C 
ATOM     21  O   UNL     1      -1.577   2.292  -1.325  1.00  0.00    +0.000 OA
ATOM     22  C   UNL     1      -3.510  -0.001  -0.861  1.00  0.00    +0.000 C 
ATOM     23  C   UNL     1      -4.236  -1.292  -1.160  1.00  0.00    +0.000 C 
ENDROOT
BRANCH   7  24
ATOM     24  O   UNL     1       3.684   0.116  -0.888  1.00  0.00    +0.000 OA
BRANCH  24  25
ATOM     25  C   UNL     1       4.292  -1.047  -1.239  1.00  0.00    +0.000 C 
ATOM     26  O   UNL     1       4.081  -2.141  -0.735  1.00  0.00    +0.000 OA
ATOM     27  C   UNL     1       5.283  -0.796  -2.333  1.00  0.00    +0.000 C 
ENDBRANCH  24  25
ENDBRANCH   7  24
TORSDOF 2
