REMARK  Name = SANCDB_00925_minRM1.pdb
AUTHORGENERATED BY OPEN BABEL 2.3.2
REMARK  4 active torsions:
REMARK  status: ('A' for Active; 'I' for Inactive)
REMARK    1  A    between atoms: C_1  and  C_2
REMARK    2  A    between atoms: C_5  and  C_14
REMARK    3  A    between atoms: C_5  and  C_15
REMARK    4  A    between atoms: C_9  and  C_13
REMARK                            x       y       z     vdW  Elec       q    Type
REMARK                         _______ _______ _______ _____ _____    ______ ____
ROOT
ATOM      1  C   UNL     1      -1.715   3.450  -0.669  1.00  0.00    +0.000 C 
ATOM      2  C   UNL     1      -1.046   2.290   0.017  1.00  0.00    +0.000 C 
ATOM      3  C   UNL     1      -1.753   1.207   0.400  1.00  0.00    +0.000 C 
ATOM      4  C   UNL     1      -1.186  -0.033   1.048  1.00  0.00    +0.000 C 
ATOM      5  C   UNL     1      -1.460  -1.382   0.308  1.00  0.00    +0.000 C 
ATOM      6  C   UNL     1      -0.310  -2.349   0.607  1.00  0.00    +0.000 C 
ATOM      7  C   UNL     1       0.964  -2.355   0.169  1.00  0.00    +0.000 C 
ATOM      8  C   UNL     1       1.670  -1.442  -0.798  1.00  0.00    +0.000 C 
ATOM      9  C   UNL     1       2.579  -0.434  -0.121  1.00  0.00    +0.000 C 
ATOM     10  C   UNL     1       2.410   0.906  -0.141  1.00  0.00    +0.000 C 
ATOM     11  C   UNL     1       1.306   1.705  -0.790  1.00  0.00    +0.000 C 
ATOM     12  C   UNL     1       0.446   2.445   0.249  1.00  0.00    +0.000 C 
ATOM     13  C   UNL     1       3.781  -1.024   0.578  1.00  0.00    +0.000 C 
ATOM     14  C   UNL     1      -1.704  -1.234  -1.208  1.00  0.00    +0.000 C 
ATOM     15  C   UNL     1      -2.759  -1.997   0.891  1.00  0.00    +0.000 C 
ENDROOT
TORSDOF 0
