REMARK  Name = /srv/my_project/app/compsite/backup/Dave/CORINA_stuff/newPDBs/SANC00155.pdb
AUTHORGENERATED BY OPEN BABEL 2.3.2
REMARK  12 active torsions:
REMARK  status: ('A' for Active; 'I' for Inactive)
REMARK    1  A    between atoms: C_5  and  C_6
REMARK    2  A    between atoms: C_14  and  O_16
REMARK    3  A    between atoms: O_16  and  C_17
REMARK    4  A    between atoms: C_17  and  C_18
REMARK    5  A    between atoms: C_22  and  C_23
REMARK    6  A    between atoms: C_23  and  C_24
REMARK    7  A    between atoms: C_23  and  O_29
REMARK    8  A    between atoms: C_24  and  C_25
REMARK    9  A    between atoms: C_26  and  C_27
REMARK   10  A    between atoms: C_26  and  C_28
REMARK   11  A    between atoms: O_29  and  C_30
REMARK   12  A    between atoms: C_30  and  C_31
REMARK                            x       y       z     vdW  Elec       q    Type
REMARK                         _______ _______ _______ _____ _____    ______ ____
ROOT
ATOM      1  C   UNL     1      -0.831  -0.138  -0.105  1.00  0.00    +0.000 C 
ATOM      2  C   UNL     1      -0.634  -0.908   1.228  1.00  0.00    +0.000 C 
ATOM      3  C   UNL     1      -1.896  -1.579   1.809  1.00  0.00    +0.000 C 
ATOM      4  C   UNL     1      -2.712  -2.354   0.794  1.00  0.00    +0.000 C 
ATOM      5  C   UNL     1      -2.135  -3.690   0.401  1.00  0.00    +0.000 C 
ATOM      6  C   UNL     1      -3.861  -1.916   0.237  1.00  0.00    +0.000 C 
ATOM      7  C   UNL     1      -4.580  -0.624   0.516  1.00  0.00    +0.000 C 
ATOM      8  C   UNL     1      -4.435   0.453  -0.576  1.00  0.00    +0.000 C 
ATOM      9  C   UNL     1      -3.029   0.794  -1.050  1.00  0.00    +0.000 C 
ATOM     10  C   UNL     1      -2.783   0.934  -2.365  1.00  0.00    +0.000 C 
ATOM     11  C   UNL     1      -1.935   0.962   0.017  1.00  0.00    +0.000 C 
ATOM     12  C   UNL     1      -1.342   2.387   0.102  1.00  0.00    +0.000 C 
ATOM     13  O   UNL     1      -0.352   2.665  -0.889  1.00  0.00    +0.000 OA
ATOM     14  C   UNL     1       0.581   1.687  -1.060  1.00  0.00    +0.000 C 
ATOM     15  C   UNL     1       0.474   0.400  -0.690  1.00  0.00    +0.000 C 
ENDROOT
BRANCH  12  16
ATOM     16  O   UNL     1      -0.786   2.551   1.426  1.00  0.00    +0.000 OA
BRANCH  16  17
ATOM     17  C   UNL     1      -0.710   3.832   1.866  1.00  0.00    +0.000 C 
ATOM     18  C   UNL     1      -0.022   3.868   3.196  1.00  0.00    +0.000 C 
ATOM     19  O   UNL     1      -1.144   4.820   1.292  1.00  0.00    +0.000 OA
ENDBRANCH  16  17
ENDBRANCH  12  16
BRANCH  15  20
ATOM     20  C   UNL     1       1.628  -0.549  -1.016  1.00  0.00    +0.000 C 
BRANCH  20  21
ATOM     21  C   UNL     1       2.658  -0.705   0.128  1.00  0.00    +0.000 C 
BRANCH  21  22
ATOM     22  C   UNL     1       3.361   0.575   0.504  1.00  0.00    +0.000 C 
ATOM     23  C   UNL     1       4.562   1.003   0.070  1.00  0.00    +0.000 C 
ATOM     24  C   UNL     1       5.140   2.304   0.562  1.00  0.00    +0.000 C 
ATOM     25  C   UNL     1       5.425   0.279  -0.928  1.00  0.00    +0.000 C 
ENDBRANCH  21  22
ENDBRANCH  20  21
BRANCH  20  26
ATOM     26  O   UNL     1       1.071  -1.836  -1.356  1.00  0.00    +0.000 OA
BRANCH  26  27
ATOM     27  C   UNL     1       1.809  -2.611  -2.192  1.00  0.00    +0.000 C 
ATOM     28  C   UNL     1       1.085  -3.894  -2.466  1.00  0.00    +0.000 C 
ATOM     29  O   UNL     1       2.906  -2.327  -2.649  1.00  0.00    +0.000 OA
ENDBRANCH  26  27
ENDBRANCH  20  26
ENDBRANCH  15  20
TORSDOF 7
