REMARK  Name = /srv/my_project/app/compsite/backup/Dave/CORINA_stuff/newPDBs/SANC00121.pdb
AUTHORGENERATED BY OPEN BABEL 2.3.2
REMARK  1 active torsions:
REMARK  status: ('A' for Active; 'I' for Inactive)
REMARK    1  A    between atoms: C_11  and  O_12
REMARK                            x       y       z     vdW  Elec       q    Type
REMARK                         _______ _______ _______ _____ _____    ______ ____
ROOT
ATOM      1  O   UNL     1       1.993  -3.777   0.555  1.00  0.00    +0.000 OA
ATOM      2  C   UNL     1       1.692  -2.590   0.483  1.00  0.00    +0.000 C 
ATOM      3  C   UNL     1       0.364  -2.143  -0.142  1.00  0.00    +0.000 C 
ATOM      4  N   UNL     1      -0.477  -3.163  -0.581  1.00  0.00    +0.000 N 
ATOM      5  C   UNL     1      -1.893  -2.935  -0.768  1.00  0.00    +0.000 C 
ATOM      6  C   UNL     1      -2.057  -1.631  -1.539  1.00  0.00    +0.000 C 
ATOM      7  C   UNL     1      -1.338  -0.431  -0.844  1.00  0.00    +0.000 C 
ATOM      8  C   UNL     1      -1.146   0.610  -1.944  1.00  0.00    +0.000 C 
ATOM      9  C   UNL     1      -1.722   1.824  -1.937  1.00  0.00    +0.000 C 
ATOM     10 BR   UNL     1      -1.393   3.060  -3.307  1.00  0.00    +0.000 Br
ATOM     11  C   UNL     1      -2.641   2.308  -0.836  1.00  0.00    +0.000 C 
ATOM     12  C   UNL     1      -2.817   1.297   0.276  1.00  0.00    +0.000 C 
ATOM     13 BR   UNL     1      -3.853   1.864   1.732  1.00  0.00    +0.000 Br
ATOM     14  C   UNL     1      -2.247   0.079   0.271  1.00  0.00    +0.000 C 
ATOM     15  C   UNL     1       0.012  -0.833  -0.231  1.00  0.00    +0.000 C 
ATOM     16  C   UNL     1       0.909   0.268   0.287  1.00  0.00    +0.000 C 
ATOM     17  N   UNL     1       0.703   1.539   0.228  1.00  0.00    +0.000 NA
ATOM     18  C   UNL     1       1.790   2.479   0.638  1.00  0.00    +0.000 C 
ATOM     19  C   UNL     1       2.722   2.012   1.782  1.00  0.00    +0.000 C 
ATOM     20  C   UNL     1       3.016   0.571   1.630  1.00  0.00    +0.000 A 
ATOM     21  C   UNL     1       4.003  -0.276   2.087  1.00  0.00    +0.000 A 
ATOM     22  N   UNL     1       3.675  -1.558   1.683  1.00  0.00    +0.000 N 
ATOM     23  H   UNL     1       4.195  -2.401   1.898  1.00  0.00    +0.000 HD
ATOM     24  C   UNL     1       2.486  -1.521   1.002  1.00  0.00    +0.000 A 
ATOM     25  C   UNL     1       2.103  -0.214   0.917  1.00  0.00    +0.000 A 
ATOM     26  H   UNL     1      -0.200  -4.080  -0.219  1.00  0.00    +0.000 HD
ENDROOT
BRANCH  11  27
ATOM     27  O   UNL     1      -3.928   2.575  -1.403  1.00  0.00    +0.000 OA
ATOM     28  H   UNL     1      -3.771   3.143  -2.176  1.00  0.00    +0.000 HD
ENDBRANCH  11  27
TORSDOF 1
