REMARK  Name = SANCDB_00832_minRM1.pdb
AUTHORGENERATED BY OPEN BABEL 2.3.2
REMARK  11 active torsions:
REMARK  status: ('A' for Active; 'I' for Inactive)
REMARK    1  A    between atoms: C_1  and  C_2
REMARK    2  A    between atoms: C_2  and  C_3
REMARK    3  A    between atoms: C_2  and  C_10
REMARK    4  A    between atoms: C_4  and  C_5
REMARK    5  A    between atoms: C_5  and  C_6
REMARK    6  A    between atoms: C_5  and  C_7
REMARK    7  A    between atoms: C_7  and  C_8
REMARK    8  A    between atoms: C_7  and  C_9
REMARK    9  A    between atoms: C_14  and  C_29
REMARK   10  A    between atoms: C_22  and  C_28
REMARK   11  A    between atoms: C_25  and  O_27
REMARK                            x       y       z     vdW  Elec       q    Type
REMARK                         _______ _______ _______ _____ _____    ______ ____
ROOT
ATOM      1  C   UNL     1      -1.225  -0.399   0.011  1.00  0.00    +0.000 C 
ATOM      2  C   UNL     1      -1.280  -0.625  -1.529  1.00  0.00    +0.000 C 
ATOM      3  C   UNL     1       0.162  -0.559  -2.046  1.00  0.00    +0.000 C 
ATOM      4  C   UNL     1       1.014  -0.549  -0.779  1.00  0.00    +0.000 C 
ATOM      5  C   UNL     1       0.168   0.269   0.225  1.00  0.00    +0.000 C 
ATOM      6  C   UNL     1       0.798   0.030   1.611  1.00  0.00    +0.000 C 
ATOM      7  C   UNL     1       2.260   0.499   1.658  1.00  0.00    +0.000 C 
ATOM      8  C   UNL     1       3.173  -0.075   0.535  1.00  0.00    +0.000 C 
ATOM      9  C   UNL     1       2.466  -0.145  -0.827  1.00  0.00    +0.000 C 
ATOM     10  C   UNL     1       3.156  -0.000  -1.972  1.00  0.00    +0.000 C 
ATOM     11  C   UNL     1       4.594   0.088  -1.977  1.00  0.00    +0.000 C 
ATOM     12  C   UNL     1       5.293   0.343  -0.859  1.00  0.00    +0.000 C 
ATOM     13  C   UNL     1       4.591   0.648   0.470  1.00  0.00    +0.000 C 
ATOM     14  C   UNL     1       5.491   0.181   1.655  1.00  0.00    +0.000 C 
ATOM     15  C   UNL     1       6.318  -1.061   1.308  1.00  0.00    +0.000 C 
ATOM     16  C   UNL     1       7.296  -0.779   0.158  1.00  0.00    +0.000 C 
ATOM     17  C   UNL     1       6.795   0.296  -0.822  1.00  0.00    +0.000 C 
ATOM     18  C   UNL     1       4.455   2.189   0.551  1.00  0.00    +0.000 C 
ATOM     19  C   UNL     1       0.127   1.778  -0.113  1.00  0.00    +0.000 C 
ENDROOT
BRANCH   1  21
ATOM     20  C   UNL     1      -2.484   0.570   2.041  1.00  0.00    +0.000 C 
ATOM     21  C   UNL     1      -2.495   0.324   0.531  1.00  0.00    +0.000 C 
BRANCH  21  22
ATOM     22  C   UNL     1      -3.732  -0.492   0.204  1.00  0.00    +0.000 C 
ATOM     23  C   UNL     1      -4.736  -0.053  -0.571  1.00  0.00    +0.000 C 
BRANCH  23  24
ATOM     24  C   UNL     1      -5.969  -0.869  -0.898  1.00  0.00    +0.000 C 
ATOM     25  C   UNL     1      -5.973  -1.137  -2.408  1.00  0.00    +0.000 C 
BRANCH  24  26
ATOM     26  C   UNL     1      -7.264  -0.157  -0.413  1.00  0.00    +0.000 C 
ATOM     27  C   UNL     1      -8.529  -0.941  -0.783  1.00  0.00    +0.000 C 
ATOM     28  C   UNL     1      -7.252   0.069   1.106  1.00  0.00    +0.000 C 
ENDBRANCH  24  26
ENDBRANCH  23  24
ENDBRANCH  21  22
ENDBRANCH   1  21
BRANCH  16  29
ATOM     29  O   UNL     1       8.538  -0.352   0.724  1.00  0.00    +0.000 OA
ATOM     30  H   UNL     1       9.165  -0.230  -0.009  1.00  0.00    +0.000 HD
ENDBRANCH  16  29
TORSDOF 5
