REMARK  Name = SANCDB_00809_minRM1.pdb
AUTHORGENERATED BY OPEN BABEL 2.3.2
REMARK  17 active torsions:
REMARK  status: ('A' for Active; 'I' for Inactive)
REMARK    1  A    between atoms: C_1  and  O_2
REMARK    2  A    between atoms: O_2  and  C_3
REMARK    3  A    between atoms: C_3  and  C_5
REMARK    4  A    between atoms: C_5  and  C_6
REMARK    5  A    between atoms: C_7  and  C_8
REMARK    6  A    between atoms: C_7  and  C_16
REMARK    7  A    between atoms: C_13  and  C_14
REMARK    8  A    between atoms: C_13  and  C_15
REMARK    9  A    between atoms: C_17  and  O_18
REMARK   10  A    between atoms: O_18  and  C_19
REMARK   11  A    between atoms: C_19  and  C_21
REMARK   12  A    between atoms: C_22  and  O_23
REMARK   13  A    between atoms: O_23  and  C_24
REMARK   14  A    between atoms: C_24  and  C_26
REMARK   15  A    between atoms: C_27  and  C_41
REMARK   16  A    between atoms: C_31  and  C_32
REMARK   17  A    between atoms: C_34  and  O_38
REMARK                            x       y       z     vdW  Elec       q    Type
REMARK                         _______ _______ _______ _____ _____    ______ ____
ROOT
ATOM      1  C   UNL     1       0.062  -0.640  -1.136  1.00  0.00    +0.000 C 
ATOM      2  C   UNL     1      -0.057   0.116   0.250  1.00  0.00    +0.000 C 
ATOM      3  C   UNL     1      -1.473   0.074   0.913  1.00  0.00    +0.000 C 
ATOM      4  C   UNL     1      -2.261  -1.201   0.548  1.00  0.00    +0.000 C 
ATOM      5  C   UNL     1      -2.366  -1.305  -0.962  1.00  0.00    +0.000 C 
ATOM      6  C   UNL     1      -3.526  -1.876  -1.324  1.00  0.00    +0.000 C 
ATOM      7  C   UNL     1      -4.412  -2.127  -0.143  1.00  0.00    +0.000 C 
ATOM      8  C   UNL     1      -3.781  -1.227   0.951  1.00  0.00    +0.000 C 
ATOM      9  C   UNL     1      -1.329  -0.735  -1.817  1.00  0.00    +0.000 C 
ATOM     10  C   UNL     1      -1.658  -0.320  -3.053  1.00  0.00    +0.000 C 
ATOM     11  C   UNL     1      -1.603  -2.466   1.160  1.00  0.00    +0.000 C 
ENDROOT
BRANCH   1  13
ATOM     12  C   UNL     1       2.712  -0.468  -1.145  1.00  0.00    +0.000 C 
ATOM     13  C   UNL     1       1.380  -0.275  -2.016  1.00  0.00    +0.000 C 
ATOM     14  C   UNL     1       1.410  -1.215  -3.258  1.00  0.00    +0.000 C 
ATOM     15  C   UNL     1       1.315   1.163  -2.514  1.00  0.00    +0.000 C 
ATOM     16  C   UNL     1       2.296   2.071  -2.478  1.00  0.00    +0.000 C 
ATOM     17  C   UNL     1       3.640   1.753  -1.964  1.00  0.00    +0.000 C 
ATOM     18  O   UNL     1       4.442   2.677  -1.844  1.00  0.00    +0.000 OA
ATOM     19  C   UNL     1       3.991   0.288  -1.689  1.00  0.00    +0.000 C 
ATOM     20  C   UNL     1       4.583  -0.270  -2.994  1.00  0.00    +0.000 C 
ATOM     21  C   UNL     1       5.107   0.282  -0.617  1.00  0.00    +0.000 C 
BRANCH  12  22
ATOM     22  C   UNL     1       3.002  -1.954  -0.792  1.00  0.00    +0.000 C 
BRANCH  22  23
ATOM     23  C   UNL     1       2.758  -2.264   0.667  1.00  0.00    +0.000 C 
ATOM     24  O   UNL     1       1.897  -3.040   1.058  1.00  0.00    +0.000 OA
BRANCH  23  26
ATOM     25  C   UNL     1       3.368  -1.722   2.860  1.00  0.00    +0.000 C 
ATOM     26  O   UNL     1       3.610  -1.568   1.461  1.00  0.00    +0.000 OA
ENDBRANCH  23  26
ENDBRANCH  22  23
ENDBRANCH  12  22
ENDBRANCH   1  13
BRANCH   8  27
ATOM     27  C   UNL     1      -4.467   0.108   1.049  1.00  0.00    +0.000 C 
ATOM     28  C   UNL     1      -5.011   0.909   0.132  1.00  0.00    +0.000 C 
ATOM     29  C   UNL     1      -5.580   2.116   0.748  1.00  0.00    +0.000 C 
ATOM     30  O   UNL     1      -5.335   1.963   2.132  1.00  0.00    +0.000 OA
ATOM     31  C   UNL     1      -4.702   0.778   2.337  1.00  0.00    +0.000 C 
ATOM     32  O   UNL     1      -4.388   0.330   3.425  1.00  0.00    +0.000 OA
BRANCH  29  33
ATOM     33  O   UNL     1      -4.902   3.238   0.237  1.00  0.00    +0.000 OA
ATOM     34  H   UNL     1      -5.218   3.987   0.769  1.00  0.00    +0.000 HD
ENDBRANCH  29  33
ENDBRANCH   8  27
BRANCH   2  35
ATOM     35  O   UNL     1       0.302   1.512   0.101  1.00  0.00    +0.000 OA
BRANCH  35  36
ATOM     36  C   UNL     1       1.049   2.074   1.092  1.00  0.00    +0.000 C 
ATOM     37  O   UNL     1       1.541   1.470   2.036  1.00  0.00    +0.000 OA
ATOM     38  C   UNL     1       1.225   3.541   0.846  1.00  0.00    +0.000 C 
ENDBRANCH  35  36
ENDBRANCH   2  35
BRANCH   3  39
ATOM     39  O   UNL     1      -1.328   0.118   2.354  1.00  0.00    +0.000 OA
BRANCH  39  40
ATOM     40  C   UNL     1      -1.444   1.326   2.968  1.00  0.00    +0.000 C 
ATOM     41  O   UNL     1      -1.667   2.389   2.406  1.00  0.00    +0.000 OA
ATOM     42  C   UNL     1      -1.224   1.176   4.442  1.00  0.00    +0.000 C 
ENDBRANCH  39  40
ENDBRANCH   3  39
TORSDOF 10
