REMARK  Name = 
REMARK  24 active torsions:
REMARK  status: ('A' for Active; 'I' for Inactive)
REMARK    1  A    between atoms: C_2  and  C_3
REMARK    2  A    between atoms: C_13  and  O_15
REMARK    3  A    between atoms: O_15  and  C_16
REMARK    4  A    between atoms: C_16  and  C_17
REMARK    5  A    between atoms: C_22  and  C_23
REMARK    6  A    between atoms: C_22  and  O_24
REMARK    7  A    between atoms: C_31  and  C_33
REMARK    8  A    between atoms: C_34  and  O_36
REMARK    9  A    between atoms: C_37  and  C_39
REMARK   10  A    between atoms: C_46  and  O_48
REMARK   11  A    between atoms: O_48  and  C_49
REMARK   12  A    between atoms: C_53  and  O_55
REMARK   13  A    between atoms: C_67  and  O_68
REMARK   14  A    between atoms: C_70  and  O_72
REMARK   15  A    between atoms: C_73  and  C_75
REMARK   16  A    between atoms: C_76  and  O_78
REMARK   17  A    between atoms: C_82  and  C_84
REMARK   18  A    between atoms: C_84  and  C_85
REMARK   19  A    between atoms: C_85  and  C_87
REMARK   20  A    between atoms: C_87  and  C_88
REMARK   21  A    between atoms: C_88  and  O_90
REMARK   22  A    between atoms: C_88  and  C_91
REMARK   23  A    between atoms: C_92  and  C_93
REMARK   24  A    between atoms: C_96  and  O_98
REMARK                            x       y       z     vdW  Elec       q    Type
REMARK                         _______ _______ _______ _____ _____    ______ ____
ROOT
ATOM      1  C   UNL     1       2.041  -0.101  -0.293  1.00  0.00    +0.000 C 
ATOM      2  C   UNL     1       1.136  -0.052  -1.532  1.00  0.00    +0.000 C 
ATOM      3  C   UNL     1       3.067   1.049  -0.345  1.00  0.00    +0.000 C 
ATOM      4  O   UNL     1       2.339   2.296  -0.323  1.00  0.00    +0.000 OA
ATOM      5  C   UNL     1       2.865   3.325  -1.038  1.00  0.00    +0.000 C 
ATOM      6  O   UNL     1       3.880   3.261  -1.720  1.00  0.00    +0.000 OA
ATOM      7  C   UNL     1       1.976   4.541  -0.990  1.00  0.00    +0.000 C 
ATOM      8  C   UNL     1       1.164   4.681   0.296  1.00  0.00    +0.000 C 
ATOM      9  C   UNL     1       2.036   5.030   1.506  1.00  0.00    +0.000 C 
ATOM     10  C   UNL     1       1.234   5.775   2.581  1.00  0.00    +0.000 C 
ATOM     11  C   UNL     1      -0.239   5.400   2.491  1.00  0.00    +0.000 C 
ATOM     12  C   UNL     1      -0.814   5.769   1.109  1.00  0.00    +0.000 C 
ATOM     13  C   UNL     1      -1.386   7.202   1.114  1.00  0.00    +0.000 C 
ATOM     14  C   UNL     1      -2.627   7.351   0.217  1.00  0.00    +0.000 C 
ATOM     15  C   UNL     1      -3.923   7.184   1.022  1.00  0.00    +0.000 C 
ATOM     16  C   UNL     1      -2.558   6.379  -0.960  1.00  0.00    +0.000 C 
ATOM     17  C   UNL     1      -2.367   4.922  -0.519  1.00  0.00    +0.000 C 
ATOM     18  C   UNL     1      -3.653   4.066  -0.580  1.00  0.00    +0.000 C 
ATOM     19  C   UNL     1      -4.186   3.799  -1.981  1.00  0.00    +0.000 C 
ATOM     20  C   UNL     1      -3.522   2.949  -2.786  1.00  0.00    +0.000 C 
ATOM     21  C   UNL     1      -5.450   4.561  -2.390  1.00  0.00    +0.000 C 
ATOM     22  C   UNL     1      -5.519   4.845  -3.902  1.00  0.00    +0.000 C 
ATOM     23  C   UNL     1      -6.800   3.955  -1.896  1.00  0.00    +0.000 C 
ATOM     24  C   UNL     1      -7.105   2.495  -2.303  1.00  0.00    +0.000 C 
ATOM     25  C   UNL     1      -8.585   2.171  -2.080  1.00  0.00    +0.000 C 
ATOM     26  C   UNL     1      -6.299   1.470  -1.511  1.00  0.00    +0.000 C 
ATOM     27  O   UNL     1      -6.029   1.652  -0.321  1.00  0.00    +0.000 OA
ATOM     28  C   UNL     1      -5.896   0.204  -2.247  1.00  0.00    +0.000 C 
ATOM     29  C   UNL     1      -5.372  -0.880  -1.304  1.00  0.00    +0.000 C 
ATOM     30  C   UNL     1      -3.932  -0.625  -0.875  1.00  0.00    +0.000 C 
ATOM     31  C   UNL     1      -3.449  -1.774   0.003  1.00  0.00    +0.000 C 
ATOM     32  C   UNL     1      -3.643  -3.105  -0.723  1.00  0.00    +0.000 C 
ATOM     33  C   UNL     1      -5.066  -3.301  -1.272  1.00  0.00    +0.000 C 
ATOM     34  C   UNL     1      -6.129  -3.557  -0.189  1.00  0.00    +0.000 C 
ATOM     35  C   UNL     1      -6.104  -4.981   0.338  1.00  0.00    +0.000 C 
ATOM     36  C   UNL     1      -6.225  -5.947  -0.826  1.00  0.00    +0.000 C 
ATOM     37  C   UNL     1      -5.104  -5.714  -1.833  1.00  0.00    +0.000 C 
ATOM     38  C   UNL     1      -3.717  -6.192  -1.470  1.00  0.00    +0.000 C 
ATOM     39  C   UNL     1      -3.385  -7.065  -0.501  1.00  0.00    +0.000 C 
ATOM     40  C   UNL     1      -2.001  -7.525  -0.119  1.00  0.00    +0.000 C 
ATOM     41  C   UNL     1      -0.835  -6.694  -0.662  1.00  0.00    +0.000 C 
ATOM     42  C   UNL     1       0.514  -7.199  -0.122  1.00  0.00    +0.000 C 
ATOM     43  C   UNL     1       1.687  -6.322  -0.600  1.00  0.00    +0.000 C 
ATOM     44  O   UNL     1       1.372  -4.993  -0.164  1.00  0.00    +0.000 OA
ATOM     45  C   UNL     1       2.431  -4.041  -0.223  1.00  0.00    +0.000 C 
ATOM     46  C   UNL     1       3.553  -4.451   0.740  1.00  0.00    +0.000 C 
ATOM     47  C   UNL     1       3.505  -5.940   1.092  1.00  0.00    +0.000 C 
ATOM     48  C   UNL     1       3.091  -6.770  -0.126  1.00  0.00    +0.000 C 
ATOM     49  C   UNL     1       3.236  -8.277   0.091  1.00  0.00    +0.000 C 
ATOM     50  C   UNL     1       1.809  -2.640   0.099  1.00  0.00    +0.000 C 
ATOM     51  C   UNL     1       2.776  -1.454  -0.149  1.00  0.00    +0.000 C 
ATOM     52  O   UNL     1       3.645  -1.403   1.000  1.00  0.00    +0.000 OA
ATOM     53  C   UNL     1       4.665  -0.400   0.902  1.00  0.00    +0.000 C 
ATOM     54  C   UNL     1       4.011   0.988   0.867  1.00  0.00    +0.000 C 
ATOM     55  O   UNL     1      -5.058  -4.348  -2.255  1.00  0.00    +0.000 OA
ATOM     56  O   UNL     1      -5.445  -2.121  -2.012  1.00  0.00    +0.000 OA
ATOM     57  O   UNL     1      -1.855   4.832   0.823  1.00  0.00    +0.000 OA
ATOM     58  O   UNL     1       0.212   5.730   0.102  1.00  0.00    +0.000 OA
ENDROOT
BRANCH  50  59
ATOM     59  O   UNL     1       1.329  -2.562   1.457  1.00  0.00    +0.000 OA
ATOM     60  H   UNL     1       2.105  -2.285   1.984  1.00  0.00    +0.000 HD
ENDBRANCH  50  59
BRANCH  54  61
ATOM     61  O   UNL     1       4.984   2.033   0.806  1.00  0.00    +0.000 OA
ATOM     62  H   UNL     1       5.663   1.777   0.149  1.00  0.00    +0.000 HD
ENDBRANCH  54  61
BRANCH  47  63
ATOM     63  O   UNL     1       4.790  -6.321   1.583  1.00  0.00    +0.000 OA
ATOM     64  H   UNL     1       4.691  -7.177   2.034  1.00  0.00    +0.000 HD
ENDBRANCH  47  63
BRANCH  45  65
ATOM     65  O   UNL     1       2.924  -4.031  -1.564  1.00  0.00    +0.000 OA
ATOM     66  H   UNL     1       2.151  -3.822  -2.115  1.00  0.00    +0.000 HD
ENDBRANCH  45  65
BRANCH  35  67
ATOM     67  O   UNL     1      -7.206  -5.192   1.218  1.00  0.00    +0.000 OA
ATOM     68  H   UNL     1      -7.100  -4.596   1.980  1.00  0.00    +0.000 HD
ENDBRANCH  35  67
BRANCH  31  69
ATOM     69  O   UNL     1      -2.054  -1.640   0.289  1.00  0.00    +0.000 OA
ATOM     70  C   UNL     1      -1.769  -0.679   1.297  1.00  0.00    +0.000 C 
ENDBRANCH  31  69
BRANCH  23  71
ATOM     71  O   UNL     1      -6.955   4.158  -0.487  1.00  0.00    +0.000 OA
ATOM     72  H   UNL     1      -6.489   3.423  -0.034  1.00  0.00    +0.000 HD
ENDBRANCH  23  71
BRANCH  14  73
ATOM     73  O   UNL     1      -2.650   8.680  -0.325  1.00  0.00    +0.000 OA
ATOM     74  H   UNL     1      -2.670   9.310   0.416  1.00  0.00    +0.000 HD
ENDBRANCH  14  73
BRANCH  53  75
ATOM     75  C   UNL     1       5.607  -0.547   2.111  1.00  0.00    +0.000 C 
BRANCH  75  76
ATOM     76  C   UNL     1       6.597  -1.691   1.962  1.00  0.00    +0.000 C 
ATOM     77  C   UNL     1       6.581  -2.733   2.813  1.00  0.00    +0.000 C 
BRANCH  76  78
ATOM     78  C   UNL     1       7.607  -1.629   0.823  1.00  0.00    +0.000 C 
BRANCH  78  79
ATOM     79  C   UNL     1       8.379  -0.296   0.718  1.00  0.00    +0.000 C 
BRANCH  79  80
ATOM     80  C   UNL     1       9.616  -0.446  -0.123  1.00  0.00    +0.000 C 
ATOM     81  C   UNL     1      10.862  -0.228   0.334  1.00  0.00    +0.000 C 
BRANCH  81  82
ATOM     82  C   UNL     1      12.100  -0.357  -0.413  1.00  0.00    +0.000 C 
ATOM     83  C   UNL     1      13.289  -0.084   0.141  1.00  0.00    +0.000 C 
ATOM     84 CL   UNL     1      12.069  -0.882  -2.065  1.00  0.00    +0.000 Cl
ENDBRANCH  81  82
ENDBRANCH  79  80
BRANCH  79  85
ATOM     85  O   UNL     1       7.565   0.696   0.079  1.00  0.00    +0.000 OA
ATOM     86  H   UNL     1       8.137   1.477  -0.037  1.00  0.00    +0.000 HD
ENDBRANCH  79  85
ENDBRANCH  78  79
ENDBRANCH  76  78
ENDBRANCH  75  76
ENDBRANCH  53  75
BRANCH  10  87
ATOM     87  O   UNL     1       1.710   5.414   3.891  1.00  0.00    +0.000 OA
BRANCH  87  88
ATOM     88  C   UNL     1       2.852   6.035   4.298  1.00  0.00    +0.000 C 
ATOM     89  C   UNL     1       3.245   5.543   5.657  1.00  0.00    +0.000 C 
ATOM     90  O   UNL     1       3.469   6.877   3.663  1.00  0.00    +0.000 OA
ENDBRANCH  87  88
ENDBRANCH  10  87
TORSDOF 17
