REMARK  Name = SANCDB_01040_minRM1.pdb
AUTHORGENERATED BY OPEN BABEL 2.3.2
REMARK  4 active torsions:
REMARK  status: ('A' for Active; 'I' for Inactive)
REMARK    1  A    between atoms: C_1  and  O_2
REMARK    2  A    between atoms: O_2  and  C_3
REMARK    3  A    between atoms: C_3  and  C_5
REMARK    4  A    between atoms: C_6  and  C_7
REMARK                            x       y       z     vdW  Elec       q    Type
REMARK                         _______ _______ _______ _____ _____    ______ ____
ROOT
ATOM      1  C   UNL     1       1.078  -0.813   0.402  1.00  0.00    +0.000 C 
ATOM      2  C   UNL     1       0.318   0.149  -0.143  1.00  0.00    +0.000 C 
ENDROOT
BRANCH   2   3
ATOM      3  C   UNL     1      -1.150   0.166  -0.073  1.00  0.00    +0.000 A 
ATOM      4  C   UNL     1      -1.806   1.398   0.055  1.00  0.00    +0.000 A 
ATOM      5  C   UNL     1      -3.201   1.461   0.099  1.00  0.00    +0.000 A 
ATOM      6  C   UNL     1      -3.955   0.294   0.003  1.00  0.00    +0.000 A 
ATOM      7  C   UNL     1      -3.316  -0.935  -0.142  1.00  0.00    +0.000 A 
ATOM      8  C   UNL     1      -1.921  -0.999  -0.185  1.00  0.00    +0.000 A 
ENDBRANCH   2   3
BRANCH   1   9
ATOM      9  C   UNL     1       2.554  -0.841   0.350  1.00  0.00    +0.000 C 
ATOM     10  O   UNL     1       3.202  -1.745   0.859  1.00  0.00    +0.000 OA
BRANCH   9  12
ATOM     11  C   UNL     1       4.486   0.240  -0.386  1.00  0.00    +0.000 C 
ATOM     12  O   UNL     1       3.060   0.228  -0.311  1.00  0.00    +0.000 OA
ENDBRANCH   9  12
ENDBRANCH   1   9
TORSDOF 3
