REMARK  Name = /srv/my_project/app/compsite/backup/Dave/CORINA_stuff/newPDBs/SANC00409.pdb
AUTHORGENERATED BY OPEN BABEL 2.3.2
REMARK  10 active torsions:
REMARK  status: ('A' for Active; 'I' for Inactive)
REMARK    1  A    between atoms: C_2  and  C_3
REMARK    2  A    between atoms: C_9  and  O_10
REMARK    3  A    between atoms: C_15  and  O_16
REMARK    4  A    between atoms: C_18  and  C_19
REMARK    5  A    between atoms: C_19  and  O_20
REMARK    6  A    between atoms: C_24  and  C_26
REMARK    7  A    between atoms: C_26  and  O_27
REMARK    8  A    between atoms: C_28  and  O_30
REMARK    9  A    between atoms: C_31  and  O_33
REMARK   10  A    between atoms: C_34  and  O_36
REMARK                            x       y       z     vdW  Elec       q    Type
REMARK                         _______ _______ _______ _____ _____    ______ ____
ROOT
ATOM      1  C   UNL     1      -0.721   0.228   0.838  1.00  0.00    +0.000 C 
ATOM      2  C   UNL     1      -1.095   1.622   1.314  1.00  0.00    +0.000 A 
ATOM      3  C   UNL     1      -1.007   1.965   2.673  1.00  0.00    +0.000 A 
ATOM      4  C   UNL     1      -1.265   3.270   3.099  1.00  0.00    +0.000 A 
ATOM      5  C   UNL     1      -1.619   4.252   2.176  1.00  0.00    +0.000 A 
ATOM      6  C   UNL     1      -1.741   3.921   0.831  1.00  0.00    +0.000 A 
ATOM      7  C   UNL     1      -1.501   2.609   0.401  1.00  0.00    +0.000 A 
ATOM      8  C   UNL     1      -1.769   2.225  -1.002  1.00  0.00    +0.000 C 
ATOM      9  O   UNL     1      -1.919   3.082  -1.870  1.00  0.00    +0.000 OA
ATOM     10  C   UNL     1      -1.959   0.794  -1.319  1.00  0.00    +0.000 A 
ATOM     11  C   UNL     1      -2.591   0.405  -2.506  1.00  0.00    +0.000 A 
ATOM     12  C   UNL     1      -2.838  -0.940  -2.768  1.00  0.00    +0.000 A 
ATOM     13  C   UNL     1      -2.448  -1.921  -1.849  1.00  0.00    +0.000 A 
ATOM     14  C   UNL     1      -1.809  -1.526  -0.662  1.00  0.00    +0.000 A 
ATOM     15  C   UNL     1      -1.544  -0.171  -0.390  1.00  0.00    +0.000 A 
ENDROOT
BRANCH   1  16
ATOM     16  C   UNL     1       0.801   0.067   0.487  1.00  0.00    +0.000 C 
ATOM     17  O   UNL     1       1.051  -1.317   0.195  1.00  0.00    +0.000 OA
ATOM     18  C   UNL     1       2.300  -1.524  -0.484  1.00  0.00    +0.000 C 
ATOM     19  C   UNL     1       3.448  -0.684   0.126  1.00  0.00    +0.000 C 
ATOM     20  C   UNL     1       3.118  -0.276   1.567  1.00  0.00    +0.000 C 
ATOM     21  C   UNL     1       1.776   0.497   1.614  1.00  0.00    +0.000 C 
BRANCH  19  22
ATOM     22  O   UNL     1       3.617   0.532  -0.634  1.00  0.00    +0.000 OA
ATOM     23  H   UNL     1       4.019   0.270  -1.484  1.00  0.00    +0.000 HD
ENDBRANCH  19  22
BRANCH  20  24
ATOM     24  O   UNL     1       3.083  -1.428   2.413  1.00  0.00    +0.000 OA
ATOM     25  H   UNL     1       3.022  -1.108   3.330  1.00  0.00    +0.000 HD
ENDBRANCH  20  24
BRANCH  21  26
ATOM     26  O   UNL     1       2.045   1.901   1.499  1.00  0.00    +0.000 OA
ATOM     27  H   UNL     1       2.596   2.015   0.697  1.00  0.00    +0.000 HD
ENDBRANCH  21  26
BRANCH  18  28
ATOM     28  C   UNL     1       2.609  -3.025  -0.439  1.00  0.00    +0.000 C 
BRANCH  28  29
ATOM     29  O   UNL     1       3.653  -3.347  -1.355  1.00  0.00    +0.000 OA
ATOM     30  H   UNL     1       3.225  -3.541  -2.209  1.00  0.00    +0.000 HD
ENDBRANCH  28  29
ENDBRANCH  18  28
ENDBRANCH   1  16
BRANCH   6  31
ATOM     31  O   UNL     1      -2.120   4.928  -0.015  1.00  0.00    +0.000 OA
ATOM     32  H   UNL     1      -2.109   4.571  -0.930  1.00  0.00    +0.000 HD
ENDBRANCH   6  31
BRANCH  11  33
ATOM     33  O   UNL     1      -3.005   1.298  -3.459  1.00  0.00    +0.000 OA
ATOM     34  H   UNL     1      -2.709   2.192  -3.180  1.00  0.00    +0.000 HD
ENDBRANCH  11  33
BRANCH  13  35
ATOM     35  C   UNL     1      -2.720  -3.376  -2.120  1.00  0.00    +0.000 C 
BRANCH  35  36
ATOM     36  O   UNL     1      -1.511  -4.115  -2.013  1.00  0.00    +0.000 OA
ATOM     37  H   UNL     1      -1.738  -5.041  -2.198  1.00  0.00    +0.000 HD
ENDBRANCH  35  36
ENDBRANCH  13  35
TORSDOF 10
