REMARK  Name = /srv/my_project/app/compsite/backup/Dave/CORINA_stuff/newPDBs/SANC00170.pdb
AUTHORGENERATED BY OPEN BABEL 2.3.2
REMARK  8 active torsions:
REMARK  status: ('A' for Active; 'I' for Inactive)
REMARK    1  A    between atoms: C_2  and  C_3
REMARK    2  A    between atoms: C_9  and  O_11
REMARK    3  A    between atoms: C_15  and  O_17
REMARK    4  A    between atoms: O_17  and  C_18
REMARK    5  A    between atoms: C_18  and  C_19
REMARK    6  A    between atoms: C_23  and  C_24
REMARK    7  A    between atoms: C_26  and  O_28
REMARK    8  A    between atoms: C_30  and  C_31
REMARK                            x       y       z     vdW  Elec       q    Type
REMARK                         _______ _______ _______ _____ _____    ______ ____
ROOT
ATOM      1  C   UNL     1      -4.541   0.466  -0.086  1.00  0.00    +0.000 C 
ATOM      2  C   UNL     1      -4.633   1.143   1.303  1.00  0.00    +0.000 C 
ATOM      3  C   UNL     1      -3.182   1.328   1.787  1.00  0.00    +0.000 C 
ATOM      4  C   UNL     1      -2.328   0.910   0.592  1.00  0.00    +0.000 C 
ATOM      5  C   UNL     1      -0.863   0.530   0.840  1.00  0.00    +0.000 C 
ATOM      6  C   UNL     1      -0.081   1.660   1.537  1.00  0.00    +0.000 C 
ATOM      7  C   UNL     1       1.403   1.505   1.455  1.00  0.00    +0.000 C 
ATOM      8  C   UNL     1       2.051   0.624   0.668  1.00  0.00    +0.000 C 
ATOM      9  C   UNL     1       3.560   0.734   0.568  1.00  0.00    +0.000 C 
ATOM     10  C   UNL     1       4.255  -0.466  -0.074  1.00  0.00    +0.000 C 
ATOM     11  C   UNL     1       3.608  -0.855  -1.406  1.00  0.00    +0.000 C 
ATOM     12  C   UNL     1       2.127  -0.480  -1.555  1.00  0.00    +0.000 C 
ATOM     13  C   UNL     1       1.318  -0.381  -0.235  1.00  0.00    +0.000 C 
ATOM     14  C   UNL     1       1.296  -1.769   0.455  1.00  0.00    +0.000 C 
ATOM     15  C   UNL     1      -0.172   0.123  -0.511  1.00  0.00    +0.000 C 
ATOM     16  C   UNL     1      -1.050  -0.855  -1.358  1.00  0.00    +0.000 C 
ATOM     17  C   UNL     1      -2.540  -0.470  -1.442  1.00  0.00    +0.000 C 
ATOM     18  C   UNL     1      -3.147  -0.218  -0.062  1.00  0.00    +0.000 C 
ATOM     19  C   UNL     1      -3.176  -1.535   0.754  1.00  0.00    +0.000 C 
ENDROOT
BRANCH   1  21
ATOM     20  C   UNL     1      -6.465  -0.312  -1.500  1.00  0.00    +0.000 C 
ATOM     21  C   UNL     1      -5.718  -0.418  -0.393  1.00  0.00    +0.000 C 
ENDBRANCH   1  21
BRANCH   6  22
ATOM     22  O   UNL     1      -0.403   2.917   0.946  1.00  0.00    +0.000 OA
ATOM     23  H   UNL     1       0.230   3.575   1.278  1.00  0.00    +0.000 HD
ENDBRANCH   6  22
BRANCH  16  24
ATOM     24  O   UNL     1      -0.561  -0.906  -2.699  1.00  0.00    +0.000 OA
ATOM     25  H   UNL     1      -1.137  -1.508  -3.202  1.00  0.00    +0.000 HD
ENDBRANCH  16  24
BRANCH  10  26
ATOM     26  O   UNL     1       5.640  -0.157  -0.349  1.00  0.00    +0.000 OA
BRANCH  26  27
ATOM     27  C   UNL     1       6.498  -0.246   0.703  1.00  0.00    +0.000 C 
ATOM     28  C   UNL     1       7.887   0.097   0.258  1.00  0.00    +0.000 C 
ATOM     29  O   UNL     1       6.197  -0.555   1.847  1.00  0.00    +0.000 OA
ENDBRANCH  26  27
ENDBRANCH  10  26
TORSDOF 5
