REMARK  Name = SANCDB_01018_minRM1.pdb
AUTHORGENERATED BY OPEN BABEL 2.3.2
REMARK  8 active torsions:
REMARK  status: ('A' for Active; 'I' for Inactive)
REMARK    1  A    between atoms: C_1  and  C_2
REMARK    2  A    between atoms: C_2  and  C_20
REMARK    3  A    between atoms: C_3  and  C_4
REMARK    4  A    between atoms: C_4  and  C_5
REMARK    5  A    between atoms: C_6  and  O_18
REMARK    6  A    between atoms: C_10  and  O_11
REMARK    7  A    between atoms: O_11  and  C_12
REMARK    8  A    between atoms: O_18  and  C_19
REMARK                            x       y       z     vdW  Elec       q    Type
REMARK                         _______ _______ _______ _____ _____    ______ ____
ROOT
ATOM      1  C   UNL     1       0.221  -0.031   0.583  1.00  0.00    +0.000 A 
ATOM      2  C   UNL     1       0.621   1.233   0.095  1.00  0.00    +0.000 A 
ATOM      3  C   UNL     1       1.770   1.344  -0.692  1.00  0.00    +0.000 A 
ATOM      4  C   UNL     1       2.492   0.198  -1.021  1.00  0.00    +0.000 A 
ATOM      5  C   UNL     1       2.122  -1.066  -0.574  1.00  0.00    +0.000 A 
ATOM      6  C   UNL     1       1.001  -1.167   0.264  1.00  0.00    +0.000 A 
ATOM      7  C   UNL     1       2.906  -2.211  -1.023  1.00  0.00    +0.000 A 
ATOM      8  C   UNL     1       3.973  -2.029  -1.806  1.00  0.00    +0.000 A 
ATOM      9  C   UNL     1       4.405  -0.693  -2.248  1.00  0.00    +0.000 A 
ATOM     10  O   UNL     1       5.402  -0.555  -2.946  1.00  0.00    +0.000 OA
ATOM     11  O   UNL     1       3.627   0.381  -1.840  1.00  0.00    +0.000 OA
ENDROOT
BRANCH   6  12
ATOM     12  O   UNL     1       0.607  -2.402   0.727  1.00  0.00    +0.000 OA
ATOM     13  C   UNL     1       1.279  -2.708   1.953  1.00  0.00    +0.000 C 
ENDBRANCH   6  12
BRANCH   2  14
ATOM     14  O   UNL     1      -0.164   2.297   0.456  1.00  0.00    +0.000 OA
ATOM     15  C   UNL     1       0.042   3.526  -0.230  1.00  0.00    +0.000 C 
ENDBRANCH   2  14
BRANCH   1  16
ATOM     16  C   UNL     1      -1.067  -0.173   1.375  1.00  0.00    +0.000 C 
BRANCH  16  19
ATOM     17  C   UNL     1      -3.585   1.654   0.839  1.00  0.00    +0.000 C 
ATOM     18  C   UNL     1      -3.334   0.292   0.253  1.00  0.00    +0.000 C 
ATOM     19  C   UNL     1      -2.249  -0.471   0.490  1.00  0.00    +0.000 C 
ATOM     20  C   UNL     1      -4.420  -0.190  -0.673  1.00  0.00    +0.000 C 
ENDBRANCH  16  19
ENDBRANCH   1  16
TORSDOF 4
