REMARK  Name = /srv/my_project/app/compsite/backup/Dave/CORINA_stuff/newPDBs/SANC00571.pdb
AUTHORGENERATED BY OPEN BABEL 2.3.2
REMARK  11 active torsions:
REMARK  status: ('A' for Active; 'I' for Inactive)
REMARK    1  A    between atoms: C_9  and  C_10
REMARK    2  A    between atoms: C_11  and  C_12
REMARK    3  A    between atoms: C_17  and  C_19
REMARK    4  A    between atoms: C_19  and  C_21
REMARK    5  A    between atoms: C_21  and  C_22
REMARK    6  A    between atoms: C_24  and  C_26
REMARK    7  A    between atoms: C_27  and  C_28
REMARK    8  A    between atoms: C_31  and  O_33
REMARK    9  A    between atoms: C_34  and  C_35
REMARK   10  A    between atoms: C_34  and  C_36
REMARK   11  A    between atoms: C_36  and  O_37
REMARK                            x       y       z     vdW  Elec       q    Type
REMARK                         _______ _______ _______ _____ _____    ______ ____
ROOT
ATOM      1  C   UNL     1      -3.411  -0.671   0.098  1.00  0.00    +0.000 C 
ATOM      2  C   UNL     1      -2.930  -0.898   1.540  1.00  0.00    +0.000 C 
ATOM      3  C   UNL     1      -1.415  -1.092   1.585  1.00  0.00    +0.000 C 
ATOM      4  C   UNL     1      -0.625  -0.253   0.606  1.00  0.00    +0.000 C 
ATOM      5  C   UNL     1      -1.203   0.528  -0.344  1.00  0.00    +0.000 C 
ATOM      6  C   UNL     1      -0.357   1.386  -1.293  1.00  0.00    +0.000 C 
ATOM      7  C   UNL     1       1.174   1.379  -1.099  1.00  0.00    +0.000 C 
ATOM      8  C   UNL     1       1.564   1.025   0.340  1.00  0.00    +0.000 C 
ATOM      9  C   UNL     1       1.056   2.160   1.296  1.00  0.00    +0.000 C 
ATOM     10  C   UNL     1       0.899  -0.366   0.679  1.00  0.00    +0.000 C 
ATOM     11  C   UNL     1       1.244  -1.555  -0.267  1.00  0.00    +0.000 C 
ATOM     12  C   UNL     1       1.558  -0.659   2.038  1.00  0.00    +0.000 C 
ATOM     13  C   UNL     1       3.014  -0.164   1.893  1.00  0.00    +0.000 C 
ATOM     14  C   UNL     1       3.073   0.767   0.632  1.00  0.00    +0.000 C 
ATOM     15  O   UNL     1       3.701   0.015  -0.435  1.00  0.00    +0.000 OA
ATOM     16  C   UNL     1       5.123   0.227  -0.398  1.00  0.00    +0.000 C 
ATOM     17  C   UNL     1       5.382   1.237   0.712  1.00  0.00    +0.000 C 
ATOM     18  C   UNL     1       4.041   1.950   0.834  1.00  0.00    +0.000 C 
ATOM     19  C   UNL     1       3.975   3.055  -0.227  1.00  0.00    +0.000 C 
ATOM     20  C   UNL     1      -2.749   0.637  -0.484  1.00  0.00    +0.000 C 
ATOM     21  C   UNL     1      -3.142   1.933   0.266  1.00  0.00    +0.000 C 
ATOM     22  C   UNL     1      -3.168   0.764  -1.971  1.00  0.00    +0.000 C 
ATOM     23  C   UNL     1      -4.672   0.668  -2.197  1.00  0.00    +0.000 C 
ATOM     24  C   UNL     1      -5.238  -0.645  -1.667  1.00  0.00    +0.000 C 
ATOM     25  C   UNL     1      -4.961  -0.866  -0.150  1.00  0.00    +0.000 C 
ATOM     26  C   UNL     1      -5.335  -2.343   0.176  1.00  0.00    +0.000 C 
ENDROOT
BRANCH  16  27
ATOM     27  C   UNL     1       5.902  -1.083  -0.222  1.00  0.00    +0.000 C 
ATOM     28  O   UNL     1       6.858  -1.175   0.550  1.00  0.00    +0.000 OA
BRANCH  27  29
ATOM     29  C   UNL     1       5.464  -2.242  -1.102  1.00  0.00    +0.000 C 
ATOM     30  C   UNL     1       6.423  -3.417  -1.040  1.00  0.00    +0.000 C 
ENDBRANCH  27  29
ENDBRANCH  16  27
BRANCH  24  31
ATOM     31  O   UNL     1      -6.635  -0.654  -1.957  1.00  0.00    +0.000 OA
ATOM     32  H   UNL     1      -6.930  -1.581  -1.959  1.00  0.00    +0.000 HD
ENDBRANCH  24  31
BRANCH  25  33
ATOM     33  C   UNL     1      -5.913   0.018   0.696  1.00  0.00    +0.000 C 
BRANCH  33  34
ATOM     34  O   UNL     1      -5.667  -0.107   2.090  1.00  0.00    +0.000 OA
ATOM     35  H   UNL     1      -6.314   0.461   2.543  1.00  0.00    +0.000 HD
ENDBRANCH  33  34
ENDBRANCH  25  33
TORSDOF 5
