REMARK  Name = SANCDB_01026_minRM1.pdb
AUTHORGENERATED BY OPEN BABEL 2.3.2
REMARK  5 active torsions:
REMARK  status: ('A' for Active; 'I' for Inactive)
REMARK    1  A    between atoms: C_1  and  C_2
REMARK    2  A    between atoms: C_7  and  C_10
REMARK    3  A    between atoms: C_10  and  C_11
REMARK    4  A    between atoms: C_12  and  C_13
REMARK    5  A    between atoms: C_12  and  C_14
REMARK                            x       y       z     vdW  Elec       q    Type
REMARK                         _______ _______ _______ _____ _____    ______ ____
ROOT
ATOM      1  C   UNL     1      -4.449   0.678   0.505  1.00  0.00    +0.000 C 
ATOM      2  C   UNL     1      -3.127  -0.023   0.545  1.00  0.00    +0.000 C 
ATOM      3  C   UNL     1      -2.936  -1.184   1.184  1.00  0.00    +0.000 C 
ATOM      4  C   UNL     1      -1.625  -1.850   1.207  1.00  0.00    +0.000 C 
ATOM      5  O   UNL     1      -1.463  -2.910   1.795  1.00  0.00    +0.000 OA
ATOM      6  C   UNL     1      -0.516  -1.192   0.495  1.00  0.00    +0.000 C 
ATOM      7  C   UNL     1      -0.667  -0.030  -0.160  1.00  0.00    +0.000 C 
ATOM      8  C   UNL     1      -2.002   0.638  -0.173  1.00  0.00    +0.000 C 
ATOM      9  O   UNL     1      -2.172   1.703  -0.757  1.00  0.00    +0.000 OA
ENDROOT
BRANCH   7  10
ATOM     10  C   UNL     1       0.412   0.714  -0.911  1.00  0.00    +0.000 C 
BRANCH  10  11
ATOM     11  C   UNL     1       1.730  -0.012  -1.020  1.00  0.00    +0.000 C 
ATOM     12  C   UNL     1       2.838   0.178  -0.275  1.00  0.00    +0.000 C 
ATOM     13  C   UNL     1       4.091  -0.614  -0.546  1.00  0.00    +0.000 C 
ATOM     14  C   UNL     1       2.953   1.146   0.870  1.00  0.00    +0.000 C 
ENDBRANCH  10  11
ENDBRANCH   7  10
TORSDOF 2
