REMARK  Name = /srv/my_project/app/compsite/backup/Dave/CORINA_stuff/newPDBs/SANC00500.pdb
AUTHORGENERATED BY OPEN BABEL 2.3.2
REMARK  35 active torsions:
REMARK  status: ('A' for Active; 'I' for Inactive)
REMARK    1  A    between atoms: C_2  and  O_3
REMARK    2  A    between atoms: O_3  and  C_4
REMARK    3  A    between atoms: C_14  and  O_16
REMARK    4  A    between atoms: C_19  and  C_20
REMARK    5  A    between atoms: C_25  and  C_26
REMARK    6  A    between atoms: C_27  and  O_28
REMARK    7  A    between atoms: C_27  and  C_29
REMARK    8  A    between atoms: C_29  and  C_31
REMARK    9  A    between atoms: C_29  and  C_32
REMARK   10  A    between atoms: C_32  and  C_34
REMARK   11  A    between atoms: C_34  and  C_35
REMARK   12  A    between atoms: C_35  and  C_36
REMARK   13  A    between atoms: C_36  and  C_37
REMARK   14  A    between atoms: C_36  and  C_38
REMARK   15  A    between atoms: C_41  and  O_43
REMARK   16  A    between atoms: C_44  and  O_46
REMARK   17  A    between atoms: O_46  and  C_47
REMARK   18  A    between atoms: C_51  and  O_53
REMARK   19  A    between atoms: O_53  and  C_54
REMARK   20  A    between atoms: C_56  and  C_57
REMARK   21  A    between atoms: C_57  and  O_58
REMARK   22  A    between atoms: C_59  and  O_61
REMARK   23  A    between atoms: C_62  and  O_63
REMARK   24  A    between atoms: C_64  and  O_66
REMARK   25  A    between atoms: C_67  and  O_69
REMARK   26  A    between atoms: C_70  and  O_72
REMARK   27  A    between atoms: O_72  and  C_73
REMARK   28  A    between atoms: C_73  and  C_75
REMARK   29  A    between atoms: C_78  and  O_79
REMARK   30  A    between atoms: O_79  and  C_80
REMARK   31  A    between atoms: C_81  and  O_82
REMARK   32  A    between atoms: O_82  and  C_83
REMARK   33  A    between atoms: C_85  and  O_87
REMARK   34  A    between atoms: O_87  and  C_88
REMARK   35  A    between atoms: C_88  and  C_89
REMARK                            x       y       z     vdW  Elec       q    Type
REMARK                         _______ _______ _______ _____ _____    ______ ____
ROOT
ATOM      1  C   UNL     1      -1.300   0.342  -0.932  1.00  0.00    +0.000 C 
ATOM      2  O   UNL     1      -1.500  -0.709  -1.888  1.00  0.00    +0.000 OA
ATOM      3  C   UNL     1      -0.968  -1.953  -1.450  1.00  0.00    +0.000 C 
ATOM      4  C   UNL     1       0.559  -1.910  -1.442  1.00  0.00    +0.000 C 
ATOM      5  C   UNL     1       1.078  -0.484  -1.159  1.00  0.00    +0.000 C 
ATOM      6  C   UNL     1       0.090   0.258  -0.239  1.00  0.00    +0.000 C 
ENDROOT
BRANCH   4   7
ATOM      7  O   UNL     1       1.034  -2.844  -0.470  1.00  0.00    +0.000 OA
ATOM      8  H   UNL     1       2.007  -2.742  -0.468  1.00  0.00    +0.000 HD
ENDBRANCH   4   7
BRANCH   1   9
ATOM      9  O   UNL     1      -2.330   0.376   0.063  1.00  0.00    +0.000 OA
BRANCH   9  10
ATOM     10  C   UNL     1      -3.657   0.341  -0.472  1.00  0.00    +0.000 C 
ATOM     11  C   UNL     1      -4.167  -1.117  -0.393  1.00  0.00    +0.000 C 
ATOM     12  C   UNL     1      -5.518  -1.033   0.301  1.00  0.00    +0.000 C 
ATOM     13  C   UNL     1      -6.071  -2.324   0.920  1.00  0.00    +0.000 C 
ATOM     14  C   UNL     1      -6.152  -3.453  -0.121  1.00  0.00    +0.000 C 
ATOM     15  C   UNL     1      -7.164  -4.516   0.179  1.00  0.00    +0.000 C 
ATOM     16  C   UNL     1      -8.038  -4.484   1.203  1.00  0.00    +0.000 C 
ATOM     17  C   UNL     1      -9.154  -5.511   1.246  1.00  0.00    +0.000 C 
ATOM     18  C   UNL     1      -9.863  -5.671   2.595  1.00  0.00    +0.000 C 
ATOM     19  C   UNL     1     -10.200  -4.345   3.281  1.00  0.00    +0.000 C 
ATOM     20  C   UNL     1      -9.518  -3.114   2.666  1.00  0.00    +0.000 C 
ATOM     21  C   UNL     1      -8.049  -3.348   2.231  1.00  0.00    +0.000 C 
ATOM     22  C   UNL     1      -7.201  -3.754   3.462  1.00  0.00    +0.000 C 
ATOM     23  C   UNL     1      -7.466  -2.046   1.554  1.00  0.00    +0.000 C 
ATOM     24  C   UNL     1      -7.446  -0.799   2.472  1.00  0.00    +0.000 C 
ATOM     25  C   UNL     1      -6.772   0.432   1.837  1.00  0.00    +0.000 C 
ATOM     26  C   UNL     1      -5.349   0.127   1.316  1.00  0.00    +0.000 C 
ATOM     27  C   UNL     1      -4.423  -0.226   2.508  1.00  0.00    +0.000 C 
ATOM     28  C   UNL     1      -4.675   1.204   0.383  1.00  0.00    +0.000 C 
BRANCH  28  29
ATOM     29  C   UNL     1      -4.018   2.447   1.062  1.00  0.00    +0.000 C 
ATOM     30  C   UNL     1      -4.994   3.268   1.908  1.00  0.00    +0.000 C 
BRANCH  29  31
ATOM     31  C   UNL     1      -3.401   3.377   0.003  1.00  0.00    +0.000 C 
ATOM     32  O   UNL     1      -3.617   3.214  -1.203  1.00  0.00    +0.000 OA
BRANCH  31  33
ATOM     33  C   UNL     1      -2.560   4.550   0.494  1.00  0.00    +0.000 C 
BRANCH  33  34
ATOM     34  C   UNL     1      -1.676   5.121  -0.618  1.00  0.00    +0.000 C 
BRANCH  34  35
ATOM     35  C   UNL     1      -0.802   6.304  -0.165  1.00  0.00    +0.000 C 
ATOM     36  C   UNL     1      -1.632   7.528   0.226  1.00  0.00    +0.000 C 
ATOM     37  C   UNL     1       0.175   6.680  -1.282  1.00  0.00    +0.000 C 
ENDBRANCH  34  35
ENDBRANCH  33  34
ENDBRANCH  31  33
ENDBRANCH  29  31
ENDBRANCH  28  29
BRANCH  28  38
ATOM     38  O   UNL     1      -5.708   1.683  -0.514  1.00  0.00    +0.000 OA
ATOM     39  H   UNL     1      -5.258   2.242  -1.184  1.00  0.00    +0.000 HD
ENDBRANCH  28  38
BRANCH  18  40
ATOM     40  O   UNL     1      -9.085  -6.475   3.487  1.00  0.00    +0.000 OA
ATOM     41  H   UNL     1      -8.772  -7.252   2.994  1.00  0.00    +0.000 HD
ENDBRANCH  18  40
ENDBRANCH   9  10
ENDBRANCH   1   9
BRANCH   6  42
ATOM     42  O   UNL     1       0.635   1.583  -0.004  1.00  0.00    +0.000 OA
BRANCH  42  43
ATOM     43  C   UNL     1       0.316   2.166   1.179  1.00  0.00    +0.000 C 
ATOM     44  C   UNL     1       1.142   3.397   1.387  1.00  0.00    +0.000 C 
ATOM     45  O   UNL     1      -0.491   1.745   1.994  1.00  0.00    +0.000 OA
ENDBRANCH  42  43
ENDBRANCH   6  42
BRANCH   5  46
ATOM     46  O   UNL     1       2.382  -0.502  -0.538  1.00  0.00    +0.000 OA
BRANCH  46  47
ATOM     47  C   UNL     1       3.463  -0.740  -1.446  1.00  0.00    +0.000 C 
ATOM     48  O   UNL     1       3.461  -2.115  -1.815  1.00  0.00    +0.000 OA
ATOM     49  C   UNL     1       4.492  -2.409  -2.753  1.00  0.00    +0.000 C 
ATOM     50  C   UNL     1       5.874  -2.201  -2.139  1.00  0.00    +0.000 C 
ATOM     51  C   UNL     1       5.997  -0.769  -1.582  1.00  0.00    +0.000 C 
ATOM     52  C   UNL     1       4.777  -0.374  -0.726  1.00  0.00    +0.000 C 
BRANCH  51  53
ATOM     53  O   UNL     1       7.233  -0.683  -0.848  1.00  0.00    +0.000 OA
ATOM     54  H   UNL     1       7.079  -0.213  -0.001  1.00  0.00    +0.000 HD
ENDBRANCH  51  53
BRANCH  52  55
ATOM     55  O   UNL     1       4.760   1.063  -0.503  1.00  0.00    +0.000 OA
BRANCH  55  56
ATOM     56  C   UNL     1       5.520   1.522   0.518  1.00  0.00    +0.000 C 
ATOM     57  O   UNL     1       6.302   0.841   1.163  1.00  0.00    +0.000 OA
BRANCH  56  58
ATOM     58  C   UNL     1       5.290   2.968   0.758  1.00  0.00    +0.000 A 
ATOM     59  C   UNL     1       5.883   3.555   1.883  1.00  0.00    +0.000 A 
ATOM     60  C   UNL     1       5.671   4.908   2.177  1.00  0.00    +0.000 A 
ATOM     61  C   UNL     1       4.871   5.694   1.346  1.00  0.00    +0.000 A 
ATOM     62  C   UNL     1       4.314   5.105   0.198  1.00  0.00    +0.000 A 
ATOM     63  C   UNL     1       4.501   3.750  -0.088  1.00  0.00    +0.000 A 
BRANCH  62  64
ATOM     64  O   UNL     1       3.487   5.800  -0.649  1.00  0.00    +0.000 OA
ATOM     65  C   UNL     1       4.242   6.682  -1.482  1.00  0.00    +0.000 C 
ENDBRANCH  62  64
BRANCH  61  66
ATOM     66  O   UNL     1       4.566   7.009   1.568  1.00  0.00    +0.000 OA
ATOM     67  C   UNL     1       5.071   7.610   2.753  1.00  0.00    +0.000 C 
ENDBRANCH  61  66
ENDBRANCH  56  58
ENDBRANCH  55  56
ENDBRANCH  52  55
BRANCH  50  68
ATOM     68  O   UNL     1       6.845  -2.417  -3.174  1.00  0.00    +0.000 OA
BRANCH  68  69
ATOM     69  C   UNL     1       8.049  -3.021  -2.682  1.00  0.00    +0.000 C 
ATOM     70  O   UNL     1       7.804  -4.413  -2.453  1.00  0.00    +0.000 OA
ATOM     71  C   UNL     1       8.976  -5.096  -1.970  1.00  0.00    +0.000 C 
ATOM     72  C   UNL     1      10.115  -5.032  -3.009  1.00  0.00    +0.000 C 
ATOM     73  C   UNL     1      10.405  -3.558  -3.344  1.00  0.00    +0.000 C 
ATOM     74  C   UNL     1       9.120  -2.844  -3.776  1.00  0.00    +0.000 C 
BRANCH  72  75
ATOM     75  O   UNL     1       9.751  -5.733  -4.214  1.00  0.00    +0.000 OA
ATOM     76  H   UNL     1       9.078  -5.179  -4.669  1.00  0.00    +0.000 HD
ENDBRANCH  72  75
BRANCH  73  77
ATOM     77  O   UNL     1      11.387  -3.472  -4.381  1.00  0.00    +0.000 OA
ATOM     78  H   UNL     1      11.033  -4.013  -5.116  1.00  0.00    +0.000 HD
ENDBRANCH  73  77
BRANCH  74  79
ATOM     79  O   UNL     1       8.643  -3.425  -5.016  1.00  0.00    +0.000 OA
ATOM     80  H   UNL     1       7.716  -3.119  -5.089  1.00  0.00    +0.000 HD
ENDBRANCH  74  79
BRANCH  71  81
ATOM     81  C   UNL     1       8.593  -6.539  -1.631  1.00  0.00    +0.000 C 
BRANCH  81  82
ATOM     82  O   UNL     1       9.652  -7.173  -0.921  1.00  0.00    +0.000 OA
ATOM     83  H   UNL     1       9.442  -8.122  -0.886  1.00  0.00    +0.000 HD
ENDBRANCH  81  82
ENDBRANCH  71  81
ENDBRANCH  68  69
ENDBRANCH  50  68
ENDBRANCH  46  47
ENDBRANCH   5  46
TORSDOF 27
