REMARK  Name = /srv/my_project/app/compsite/backup/Dave/CORINA_stuff/newPDBs/SANC00608.pdb
AUTHORGENERATED BY OPEN BABEL 2.3.2
REMARK  4 active torsions:
REMARK  status: ('A' for Active; 'I' for Inactive)
REMARK    1  A    between atoms: C_1  and  N_2
REMARK    2  A    between atoms: C_14  and  O_19
REMARK    3  A    between atoms: C_16  and  O_17
REMARK    4  A    between atoms: O_17  and  C_18
REMARK                            x       y       z     vdW  Elec       q    Type
REMARK                         _______ _______ _______ _____ _____    ______ ____
ROOT
ATOM      1  C   UNL     1       0.631  -2.692  -0.998  1.00  0.00    +0.000 C 
ATOM      2  N   UNL     1       0.594  -1.336  -0.445  1.00  0.00    +0.000 N 
ATOM      3  C   UNL     1       1.777  -0.568  -0.470  1.00  0.00    +0.000 A 
ATOM      4  C   UNL     1       3.050  -1.105  -0.731  1.00  0.00    +0.000 A 
ATOM      5  C   UNL     1       4.196  -0.298  -0.756  1.00  0.00    +0.000 A 
ATOM      6  C   UNL     1       4.098   1.067  -0.515  1.00  0.00    +0.000 A 
ATOM      7  C   UNL     1       2.855   1.624  -0.236  1.00  0.00    +0.000 A 
ATOM      8  C   UNL     1       1.712   0.810  -0.204  1.00  0.00    +0.000 A 
ATOM      9  C   UNL     1       0.402   1.422   0.108  1.00  0.00    +0.000 A 
ATOM     10  O   UNL     1       0.305   2.645   0.108  1.00  0.00    +0.000 OA
ATOM     11  C   UNL     1      -0.751   0.528   0.401  1.00  0.00    +0.000 A 
ATOM     12  C   UNL     1      -0.615  -0.850   0.107  1.00  0.00    +0.000 A 
ATOM     13  C   UNL     1      -1.701  -1.694   0.414  1.00  0.00    +0.000 A 
ATOM     14  C   UNL     1      -2.873  -1.185   0.972  1.00  0.00    +0.000 A 
ATOM     15  C   UNL     1      -3.002   0.166   1.246  1.00  0.00    +0.000 A 
ATOM     16  C   UNL     1      -1.946   1.026   0.952  1.00  0.00    +0.000 A 
ENDROOT
BRANCH  16  17
ATOM     17  O   UNL     1      -2.096   2.338   1.319  1.00  0.00    +0.000 OA
ATOM     18  C   UNL     1      -2.745   3.075   0.281  1.00  0.00    +0.000 C 
ENDBRANCH  16  17
BRANCH  14  19
ATOM     19  O   UNL     1      -3.926  -1.995   1.281  1.00  0.00    +0.000 OA
ATOM     20  H   UNL     1      -3.696  -2.916   1.074  1.00  0.00    +0.000 HD
ENDBRANCH  14  19
TORSDOF 2
