REMARK  Name = /srv/my_project/app/compsite/backup/Dave/CORINA_stuff/newPDBs/SANC00639.pdb
AUTHORGENERATED BY OPEN BABEL 2.3.2
REMARK  4 active torsions:
REMARK  status: ('A' for Active; 'I' for Inactive)
REMARK    1  A    between atoms: C_1  and  O_2
REMARK    2  A    between atoms: O_2  and  C_3
REMARK    3  A    between atoms: C_17  and  O_24
REMARK    4  A    between atoms: C_21  and  O_23
REMARK                            x       y       z     vdW  Elec       q    Type
REMARK                         _______ _______ _______ _____ _____    ______ ____
ROOT
ATOM      1  C   UNL     1      -3.051   0.303  -0.862  1.00  0.00    +0.000 C 
ATOM      2  C   UNL     1      -2.376  -1.074  -0.763  1.00  0.00    +0.000 C 
ATOM      3  C   UNL     1      -0.858  -0.911  -0.587  1.00  0.00    +0.000 C 
ATOM      4  C   UNL     1      -0.479  -0.099   0.682  1.00  0.00    +0.000 C 
ATOM      5  C   UNL     1      -1.414   1.076   0.892  1.00  0.00    +0.000 C 
ATOM      6  C   UNL     1      -2.539   1.262   0.180  1.00  0.00    +0.000 C 
ATOM      7  C   UNL     1       1.014   0.272   0.530  1.00  0.00    +0.000 A 
ATOM      8  C   UNL     1       1.571   1.462   1.027  1.00  0.00    +0.000 A 
ATOM      9  C   UNL     1       2.926   1.667   0.861  1.00  0.00    +0.000 A 
ATOM     10  C   UNL     1       3.734   0.747   0.238  1.00  0.00    +0.000 A 
ATOM     11  C   UNL     1       3.237  -0.438  -0.255  1.00  0.00    +0.000 A 
ATOM     12  C   UNL     1       1.862  -0.693  -0.106  1.00  0.00    +0.000 A 
ATOM     13  C   UNL     1       1.283  -1.998  -0.637  1.00  0.00    +0.000 C 
ATOM     14  N   UNL     1      -0.152  -2.211  -0.381  1.00  0.00    +0.000 NA
ATOM     15  C   UNL     1      -0.367  -2.511   1.056  1.00  0.00    +0.000 C 
ATOM     16  C   UNL     1      -0.562  -1.176   1.805  1.00  0.00    +0.000 C 
ATOM     17  O   UNL     1       5.032   1.147   0.183  1.00  0.00    +0.000 OA
ATOM     18  C   UNL     1       4.944   2.438   0.821  1.00  0.00    +0.000 C 
ATOM     19  O   UNL     1       3.615   2.763   1.280  1.00  0.00    +0.000 OA
ENDROOT
BRANCH   1  21
ATOM     20  C   UNL     1      -3.772   1.748  -2.612  1.00  0.00    +0.000 C 
ATOM     21  O   UNL     1      -2.776   0.841  -2.158  1.00  0.00    +0.000 OA
ENDBRANCH   1  21
BRANCH  16  22
ATOM     22  O   UNL     1      -1.821  -1.178   2.487  1.00  0.00    +0.000 OA
ATOM     23  H   UNL     1      -1.782  -1.866   3.173  1.00  0.00    +0.000 HD
ENDBRANCH  16  22
BRANCH  13  24
ATOM     24  O   UNL     1       1.470  -2.039  -2.037  1.00  0.00    +0.000 OA
ATOM     25  H   UNL     1       0.659  -2.481  -2.341  1.00  0.00    +0.000 HD
ENDBRANCH  13  24
TORSDOF 3
