REMARK  Name = /srv/my_project/app/compsite/backup/Dave/CORINA_stuff/newPDBs/SANC00481.pdb
AUTHORGENERATED BY OPEN BABEL 2.3.2
REMARK  16 active torsions:
REMARK  status: ('A' for Active; 'I' for Inactive)
REMARK    1  A    between atoms: O_1  and  C_2
REMARK    2  A    between atoms: C_5  and  C_78
REMARK    3  A    between atoms: C_5  and  C_79
REMARK    4  A    between atoms: C_19  and  C_20
REMARK    5  A    between atoms: C_30  and  C_31
REMARK    6  A    between atoms: C_47  and  O_48
REMARK    7  A    between atoms: C_47  and  C_51
REMARK    8  A    between atoms: C_52  and  C_64
REMARK    9  A    between atoms: C_54  and  O_55
REMARK   10  A    between atoms: C_56  and  C_57
REMARK   11  A    between atoms: C_58  and  O_60
REMARK   12  A    between atoms: C_68  and  O_70
REMARK   13  A    between atoms: C_71  and  C_72
REMARK   14  A    between atoms: C_73  and  O_74
REMARK   15  A    between atoms: C_75  and  C_77
REMARK   16  A    between atoms: C_79  and  O_80
REMARK                            x       y       z     vdW  Elec       q    Type
REMARK                         _______ _______ _______ _____ _____    ______ ____
ROOT
ATOM      1  C   UNL     1      12.827  -0.284   0.865  1.00  0.00    +0.000 C 
ATOM      2  C   UNL     1      12.771   1.079   1.520  1.00  0.00    +0.000 C 
ATOM      3  C   UNL     1      11.583   1.744   0.827  1.00  0.00    +0.000 C 
ATOM      4  O   UNL     1      10.749   0.679   0.321  1.00  0.00    +0.000 OA
ATOM      5  C   UNL     1      11.339  -0.587   0.649  1.00  0.00    +0.000 C 
ATOM      6  O   UNL     1      10.788  -1.053   1.894  1.00  0.00    +0.000 OA
ATOM      7  C   UNL     1       9.580  -1.753   1.587  1.00  0.00    +0.000 C 
ATOM      8  C   UNL     1       8.431  -0.830   1.812  1.00  0.00    +0.000 C 
ATOM      9  C   UNL     1       7.701  -0.625   0.709  1.00  0.00    +0.000 C 
ATOM     10  C   UNL     1       6.409   0.137   0.544  1.00  0.00    +0.000 C 
ATOM     11  C   UNL     1       5.982   0.916   1.798  1.00  0.00    +0.000 C 
ATOM     12  C   UNL     1       4.648   1.629   1.605  1.00  0.00    +0.000 C 
ATOM     13  C   UNL     1       3.549   0.647   1.181  1.00  0.00    +0.000 C 
ATOM     14  C   UNL     1       3.909  -0.135  -0.121  1.00  0.00    +0.000 C 
ATOM     15  C   UNL     1       3.964   0.797  -1.359  1.00  0.00    +0.000 C 
ATOM     16  C   UNL     1       2.791  -1.192  -0.347  1.00  0.00    +0.000 C 
ATOM     17  C   UNL     1       1.385  -0.676  -0.182  1.00  0.00    +0.000 A 
ATOM     18  N   UNL     1       0.398  -1.441  -0.712  1.00  0.00    +0.000 NA
ATOM     19  C   UNL     1      -0.874  -1.006  -0.533  1.00  0.00    +0.000 A 
ATOM     20  C   UNL     1      -1.154   0.175   0.152  1.00  0.00    +0.000 A 
ATOM     21  N   UNL     1      -0.167   0.932   0.693  1.00  0.00    +0.000 NA
ATOM     22  C   UNL     1       1.104   0.492   0.523  1.00  0.00    +0.000 A 
ATOM     23  C   UNL     1       2.194   1.364   1.080  1.00  0.00    +0.000 C 
ATOM     24  C   UNL     1      -2.565   0.649   0.385  1.00  0.00    +0.000 C 
ATOM     25  C   UNL     1      -3.636   0.024  -0.556  1.00  0.00    +0.000 C 
ATOM     26  C   UNL     1      -3.514   0.693  -1.949  1.00  0.00    +0.000 C 
ATOM     27  C   UNL     1      -3.358  -1.509  -0.617  1.00  0.00    +0.000 C 
ATOM     28  C   UNL     1      -1.959  -1.831  -1.164  1.00  0.00    +0.000 C 
ATOM     29  C   UNL     1      -4.429  -2.272  -1.403  1.00  0.00    +0.000 C 
ATOM     30  C   UNL     1      -5.819  -2.038  -0.823  1.00  0.00    +0.000 C 
ATOM     31  C   UNL     1      -6.173  -0.544  -0.729  1.00  0.00    +0.000 C 
ATOM     32  C   UNL     1      -7.539  -0.289  -0.128  1.00  0.00    +0.000 C 
ATOM     33  C   UNL     1      -8.519  -1.157   0.159  1.00  0.00    +0.000 C 
ATOM     34  C   UNL     1      -9.720  -0.498   0.740  1.00  0.00    +0.000 C 
ATOM     35  O   UNL     1     -10.764  -0.402  -0.216  1.00  0.00    +0.000 OA
ATOM     36  C   UNL     1     -11.550   0.724   0.209  1.00  0.00    +0.000 C 
ATOM     37  O   UNL     1     -12.379   0.288   1.292  1.00  0.00    +0.000 OA
ATOM     38  C   UNL     1     -13.773   0.242   1.017  1.00  0.00    +0.000 C 
ATOM     39  C   UNL     1     -14.120  -0.463  -0.305  1.00  0.00    +0.000 C 
ATOM     40  C   UNL     1     -13.359   0.183  -1.476  1.00  0.00    +0.000 C 
ATOM     41  C   UNL     1     -12.348   1.229  -1.000  1.00  0.00    +0.000 C 
ATOM     42  C   UNL     1     -13.826  -1.965  -0.224  1.00  0.00    +0.000 C 
ATOM     43  C   UNL     1     -10.527   1.775   0.713  1.00  0.00    +0.000 C 
ATOM     44  C   UNL     1      -9.270   0.944   1.053  1.00  0.00    +0.000 C 
ATOM     45  C   UNL     1      -7.971   1.147   0.156  1.00  0.00    +0.000 C 
ATOM     46  C   UNL     1      -8.249   1.830  -1.204  1.00  0.00    +0.000 C 
ATOM     47  C   UNL     1      -6.828   1.865   0.920  1.00  0.00    +0.000 C 
ATOM     48  C   UNL     1      -5.469   1.726   0.218  1.00  0.00    +0.000 C 
ATOM     49  C   UNL     1      -5.074   0.238   0.051  1.00  0.00    +0.000 C 
ATOM     50  C   UNL     1     -11.056   2.657   1.845  1.00  0.00    +0.000 C 
ATOM     51  C   UNL     1       5.291  -0.857   0.107  1.00  0.00    +0.000 C 
ATOM     52  C   UNL     1       5.744  -1.745  -1.080  1.00  0.00    +0.000 C 
ATOM     53  C   UNL     1       7.108  -2.419  -0.828  1.00  0.00    +0.000 C 
ATOM     54  C   UNL     1       8.238  -1.401  -0.481  1.00  0.00    +0.000 C 
ATOM     55  C   UNL     1       8.524  -0.497  -1.698  1.00  0.00    +0.000 C 
ATOM     56  C   UNL     1       9.551  -2.109   0.077  1.00  0.00    +0.000 C 
ATOM     57  C   UNL     1      10.955  -1.645  -0.392  1.00  0.00    +0.000 C 
ATOM     58  C   UNL     1      11.963  -2.804  -0.454  1.00  0.00    +0.000 C 
ATOM     59  C   UNL     1      10.742   2.561   1.808  1.00  0.00    +0.000 C 
ENDROOT
BRANCH   1  60
ATOM     60  O   UNL     1      13.493  -1.214   1.713  1.00  0.00    +0.000 OA
ATOM     61  H   UNL     1      12.826  -1.486   2.376  1.00  0.00    +0.000 HD
ENDBRANCH   1  60
BRANCH  39  62
ATOM     62  O   UNL     1     -15.523  -0.308  -0.558  1.00  0.00    +0.000 OA
ATOM     63  H   UNL     1     -16.009  -0.810   0.119  1.00  0.00    +0.000 HD
ENDBRANCH  39  62
BRANCH  44  64
ATOM     64  O   UNL     1      -8.944   1.065   2.448  1.00  0.00    +0.000 OA
ATOM     65  H   UNL     1      -8.467   0.258   2.715  1.00  0.00    +0.000 HD
ENDBRANCH  44  64
BRANCH  47  66
ATOM     66  O   UNL     1      -7.121   3.249   1.091  1.00  0.00    +0.000 OA
ATOM     67  H   UNL     1      -7.831   3.294   1.760  1.00  0.00    +0.000 HD
ENDBRANCH  47  66
BRANCH  53  68
ATOM     68  O   UNL     1       7.485  -3.187  -1.977  1.00  0.00    +0.000 OA
ATOM     69  H   UNL     1       6.739  -3.778  -2.185  1.00  0.00    +0.000 HD
ENDBRANCH  53  68
BRANCH  56  70
ATOM     70  O   UNL     1       9.435  -3.536  -0.066  1.00  0.00    +0.000 OA
ATOM     71  H   UNL     1       9.171  -3.700  -0.996  1.00  0.00    +0.000 HD
ENDBRANCH  56  70
BRANCH   3  72
ATOM     72  C   UNL     1      11.996   2.635  -0.364  1.00  0.00    +0.000 C 
BRANCH  72  73
ATOM     73  O   UNL     1      12.863   1.959  -1.275  1.00  0.00    +0.000 OA
ATOM     74  H   UNL     1      13.776   2.080  -0.962  1.00  0.00    +0.000 HD
ENDBRANCH  72  73
ENDBRANCH   3  72
TORSDOF 8
