REMARK  Name = /srv/my_project/app/compsite/backup/Dave/CORINA_stuff/newPDBs/SANC00594.pdb
AUTHORGENERATED BY OPEN BABEL 2.3.2
REMARK  12 active torsions:
REMARK  status: ('A' for Active; 'I' for Inactive)
REMARK    1  A    between atoms: C_5  and  C_7
REMARK    2  A    between atoms: C_8  and  C_10
REMARK    3  A    between atoms: C_10  and  C_11
REMARK    4  A    between atoms: C_11  and  C_12
REMARK    5  A    between atoms: C_13  and  C_14
REMARK    6  A    between atoms: C_17  and  O_18
REMARK    7  A    between atoms: C_20  and  C_21
REMARK    8  A    between atoms: C_20  and  C_22
REMARK    9  A    between atoms: C_27  and  C_28
REMARK   10  A    between atoms: C_29  and  C_30
REMARK   11  A    between atoms: C_35  and  C_36
REMARK   12  A    between atoms: C_35  and  C_37
REMARK                            x       y       z     vdW  Elec       q    Type
REMARK                         _______ _______ _______ _____ _____    ______ ____
ROOT
ATOM      1  C   UNL     1       0.492   0.221   1.029  1.00  0.00    +0.000 C 
ENDROOT
BRANCH   1   2
ATOM      2  C   UNL     1       1.997   0.375   1.284  1.00  0.00    +0.000 C 
ATOM      3  C   UNL     1       2.446   1.363   2.094  1.00  0.00    +0.000 C 
ATOM      4  C   UNL     1       1.614   2.362   2.853  1.00  0.00    +0.000 C 
ATOM      5  C   UNL     1       3.902   1.559   2.287  1.00  0.00    +0.000 C 
ATOM      6  O   UNL     1       4.367   2.483   2.953  1.00  0.00    +0.000 OA
ATOM      7  C   UNL     1       4.846   0.588   1.682  1.00  0.00    +0.000 C 
ATOM      8  C   UNL     1       4.434  -0.432   0.905  1.00  0.00    +0.000 C 
ATOM      9  C   UNL     1       5.434  -1.505   0.396  1.00  0.00    +0.000 C 
ATOM     10  C   UNL     1       6.407  -0.889  -0.633  1.00  0.00    +0.000 C 
ATOM     11  C   UNL     1       6.236  -2.160   1.542  1.00  0.00    +0.000 C 
ATOM     12  C   UNL     1       4.709  -2.683  -0.286  1.00  0.00    +0.000 C 
ATOM     13  O   UNL     1       5.201  -3.301  -1.234  1.00  0.00    +0.000 OA
ATOM     14  C   UNL     1       3.396  -3.153   0.289  1.00  0.00    +0.000 C 
ATOM     15  C   UNL     1       2.622  -2.067   1.024  1.00  0.00    +0.000 C 
ATOM     16  C   UNL     1       2.943  -0.624   0.558  1.00  0.00    +0.000 C 
ATOM     17  C   UNL     1       2.734  -0.423  -0.961  1.00  0.00    +0.000 C 
BRANCH   7  18
ATOM     18  O   UNL     1       6.178   0.790   1.993  1.00  0.00    +0.000 OA
ATOM     19  H   UNL     1       6.189   1.599   2.550  1.00  0.00    +0.000 HD
ENDBRANCH   7  18
ENDBRANCH   1   2
BRANCH   1  20
ATOM     20  C   UNL     1      -0.076   1.272   0.057  1.00  0.00    +0.000 C 
BRANCH  20  26
ATOM     21  C   UNL     1      -3.723   0.542  -1.223  1.00  0.00    +0.000 C 
ATOM     22  C   UNL     1      -3.488   1.446  -2.436  1.00  0.00    +0.000 C 
ATOM     23  C   UNL     1      -2.416   2.505  -2.176  1.00  0.00    +0.000 C 
ATOM     24  C   UNL     1      -2.136   2.691  -0.679  1.00  0.00    +0.000 C 
ATOM     25  C   UNL     1      -1.259   3.926  -0.458  1.00  0.00    +0.000 C 
ATOM     26  C   UNL     1      -1.632   1.361   0.008  1.00  0.00    +0.000 C 
ATOM     27  C   UNL     1      -2.383   0.081  -0.577  1.00  0.00    +0.000 C 
ATOM     28  C   UNL     1      -1.535  -0.667  -1.644  1.00  0.00    +0.000 C 
ATOM     29  C   UNL     1      -2.694  -0.966   0.540  1.00  0.00    +0.000 C 
ATOM     30  C   UNL     1      -3.945  -0.675   1.362  1.00  0.00    +0.000 C 
ATOM     31  C   UNL     1      -5.205  -1.259   0.750  1.00  0.00    +0.000 C 
ATOM     32  O   UNL     1      -6.005  -1.853   1.482  1.00  0.00    +0.000 OA
ATOM     33  C   UNL     1      -5.525  -1.008  -0.753  1.00  0.00    +0.000 C 
ATOM     34  C   UNL     1      -6.698  -0.018  -0.835  1.00  0.00    +0.000 C 
ATOM     35  C   UNL     1      -5.986  -2.354  -1.340  1.00  0.00    +0.000 C 
ATOM     36  O   UNL     1      -4.486  -0.588  -1.633  1.00  0.00    +0.000 OA
ENDBRANCH  20  26
ENDBRANCH   1  20
TORSDOF 4
