REMARK  Name = /srv/my_project/app/compsite/backup/Dave/CORINA_stuff/newPDBs/SANC00405.pdb
AUTHORGENERATED BY OPEN BABEL 2.3.2
REMARK  33 active torsions:
REMARK  status: ('A' for Active; 'I' for Inactive)
REMARK    1  A    between atoms: C_11  and  C_12
REMARK    2  A    between atoms: C_16  and  O_18
REMARK    3  A    between atoms: O_18  and  C_19
REMARK    4  A    between atoms: C_22  and  C_24
REMARK    5  A    between atoms: C_24  and  O_25
REMARK    6  A    between atoms: C_26  and  O_28
REMARK    7  A    between atoms: C_29  and  O_31
REMARK    8  A    between atoms: C_32  and  O_34
REMARK    9  A    between atoms: C_35  and  C_37
REMARK   10  A    between atoms: C_37  and  C_39
REMARK   11  A    between atoms: C_37  and  C_40
REMARK   12  A    between atoms: C_40  and  O_42
REMARK   13  A    between atoms: C_40  and  C_43
REMARK   14  A    between atoms: C_43  and  C_44
REMARK   15  A    between atoms: C_45  and  C_46
REMARK   16  A    between atoms: C_45  and  C_47
REMARK   17  A    between atoms: C_48  and  C_49
REMARK   18  A    between atoms: C_50  and  O_52
REMARK   19  A    between atoms: O_52  and  C_53
REMARK   20  A    between atoms: C_56  and  C_58
REMARK   21  A    between atoms: C_58  and  O_59
REMARK   22  A    between atoms: O_59  and  C_60
REMARK   23  A    between atoms: C_60  and  C_62
REMARK   24  A    between atoms: C_64  and  O_65
REMARK   25  A    between atoms: O_65  and  C_66
REMARK   26  A    between atoms: C_67  and  O_68
REMARK   27  A    between atoms: O_68  and  C_69
REMARK   28  A    between atoms: C_70  and  O_71
REMARK   29  A    between atoms: O_71  and  C_72
REMARK   30  A    between atoms: C_74  and  O_76
REMARK   31  A    between atoms: C_77  and  O_79
REMARK   32  A    between atoms: C_80  and  O_82
REMARK   33  A    between atoms: C_84  and  O_86
REMARK                            x       y       z     vdW  Elec       q    Type
REMARK                         _______ _______ _______ _____ _____    ______ ____
ROOT
ATOM      1  C   UNL     1       0.774  -4.332   0.816  1.00  0.00    +0.000 C 
ATOM      2  C   UNL     1      -0.132  -4.442  -0.415  1.00  0.00    +0.000 C 
ATOM      3  C   UNL     1      -1.452  -3.719  -0.174  1.00  0.00    +0.000 C 
ATOM      4  C   UNL     1      -1.261  -2.257   0.259  1.00  0.00    +0.000 C 
ATOM      5  C   UNL     1      -0.284  -2.134   1.472  1.00  0.00    +0.000 C 
ATOM      6  C   UNL     1      -0.168  -0.655   1.922  1.00  0.00    +0.000 C 
ATOM      7  C   UNL     1      -1.536   0.005   2.196  1.00  0.00    +0.000 C 
ATOM      8  C   UNL     1      -2.495  -0.102   0.992  1.00  0.00    +0.000 C 
ATOM      9  C   UNL     1      -1.976   0.769  -0.176  1.00  0.00    +0.000 C 
ATOM     10  C   UNL     1      -2.598  -1.612   0.655  1.00  0.00    +0.000 C 
ATOM     11  C   UNL     1      -3.751  -1.687  -0.332  1.00  0.00    +0.000 C 
ATOM     12  C   UNL     1      -4.753  -0.627   0.168  1.00  0.00    +0.000 C 
ATOM     13  C   UNL     1      -4.005   0.188   1.286  1.00  0.00    +0.000 C 
ATOM     14  C   UNL     1       1.099  -2.852   1.216  1.00  0.00    +0.000 C 
ATOM     15  C   UNL     1       1.850  -2.135   0.062  1.00  0.00    +0.000 C 
ATOM     16  C   UNL     1       1.970  -2.854   2.549  1.00  0.00    +0.000 C 
ATOM     17  C   UNL     1       2.323  -4.275   3.030  1.00  0.00    +0.000 C 
ATOM     18  C   UNL     1       2.940  -5.112   1.909  1.00  0.00    +0.000 C 
ATOM     19  C   UNL     1       2.046  -5.181   0.663  1.00  0.00    +0.000 C 
ENDROOT
BRANCH  13  20
ATOM     20  C   UNL     1      -4.511   1.660   1.441  1.00  0.00    +0.000 C 
ATOM     21  C   UNL     1      -3.691   2.430   2.484  1.00  0.00    +0.000 C 
BRANCH  20  22
ATOM     22  C   UNL     1      -6.027   1.672   1.818  1.00  0.00    +0.000 C 
BRANCH  22  23
ATOM     23  O   UNL     1      -6.192   1.009   3.078  1.00  0.00    +0.000 OA
ATOM     24  H   UNL     1      -7.138   1.018   3.299  1.00  0.00    +0.000 HD
ENDBRANCH  22  23
BRANCH  22  25
ATOM     25  C   UNL     1      -6.689   3.064   1.899  1.00  0.00    +0.000 C 
BRANCH  25  26
ATOM     26  C   UNL     1      -6.732   3.794   0.586  1.00  0.00    +0.000 C 
ATOM     27  C   UNL     1      -6.205   4.996   0.278  1.00  0.00    +0.000 C 
ATOM     28  C   UNL     1      -6.384   5.575  -1.103  1.00  0.00    +0.000 C 
ATOM     29  C   UNL     1      -5.421   5.877   1.211  1.00  0.00    +0.000 C 
ENDBRANCH  25  26
ENDBRANCH  22  25
ENDBRANCH  20  22
ENDBRANCH  13  20
BRANCH  18  30
ATOM     30  O   UNL     1       4.224  -4.585   1.565  1.00  0.00    +0.000 OA
ATOM     31  H   UNL     1       4.083  -3.654   1.280  1.00  0.00    +0.000 HD
ENDBRANCH  18  30
BRANCH  16  32
ATOM     32  O   UNL     1       3.194  -2.125   2.345  1.00  0.00    +0.000 OA
BRANCH  32  33
ATOM     33  C   UNL     1       3.788  -1.585   3.527  1.00  0.00    +0.000 C 
ATOM     34  O   UNL     1       3.934  -0.167   3.421  1.00  0.00    +0.000 OA
ATOM     35  C   UNL     1       4.964   0.300   2.531  1.00  0.00    +0.000 C 
ATOM     36  C   UNL     1       6.337  -0.337   2.831  1.00  0.00    +0.000 C 
ATOM     37  C   UNL     1       6.256  -1.865   2.936  1.00  0.00    +0.000 C 
ATOM     38  C   UNL     1       5.127  -2.272   3.892  1.00  0.00    +0.000 C 
BRANCH  36  39
ATOM     39  O   UNL     1       6.847   0.203   4.065  1.00  0.00    +0.000 OA
ATOM     40  H   UNL     1       6.336  -0.214   4.789  1.00  0.00    +0.000 HD
ENDBRANCH  36  39
BRANCH  37  41
ATOM     41  O   UNL     1       6.099  -2.457   1.647  1.00  0.00    +0.000 OA
ATOM     42  H   UNL     1       6.086  -3.428   1.761  1.00  0.00    +0.000 HD
ENDBRANCH  37  41
BRANCH  38  43
ATOM     43  O   UNL     1       5.519  -1.911   5.233  1.00  0.00    +0.000 OA
ATOM     44  H   UNL     1       4.848  -2.263   5.844  1.00  0.00    +0.000 HD
ENDBRANCH  38  43
BRANCH  35  45
ATOM     45  C   UNL     1       4.551   0.200   1.054  1.00  0.00    +0.000 C 
BRANCH  45  46
ATOM     46  O   UNL     1       5.556   0.746   0.183  1.00  0.00    +0.000 OA
BRANCH  46  47
ATOM     47  C   UNL     1       5.469   2.065  -0.095  1.00  0.00    +0.000 C 
ATOM     48  O   UNL     1       4.623   2.836   0.326  1.00  0.00    +0.000 OA
BRANCH  47  49
ATOM     49  C   UNL     1       6.560   2.457  -1.031  1.00  0.00    +0.000 A 
ATOM     50  C   UNL     1       7.631   1.596  -1.318  1.00  0.00    +0.000 A 
ATOM     51  C   UNL     1       8.627   1.987  -2.213  1.00  0.00    +0.000 A 
ATOM     52  C   UNL     1       8.525   3.242  -2.837  1.00  0.00    +0.000 A 
ATOM     53  C   UNL     1       7.474   4.126  -2.537  1.00  0.00    +0.000 A 
ATOM     54  C   UNL     1       6.492   3.723  -1.632  1.00  0.00    +0.000 A 
BRANCH  51  55
ATOM     55  O   UNL     1       9.704   1.215  -2.563  1.00  0.00    +0.000 OA
ATOM     56  C   UNL     1      10.000   0.102  -1.732  1.00  0.00    +0.000 C 
ENDBRANCH  51  55
BRANCH  52  57
ATOM     57  O   UNL     1       9.514   3.645  -3.707  1.00  0.00    +0.000 OA
ATOM     58  C   UNL     1       9.179   3.250  -5.035  1.00  0.00    +0.000 C 
ENDBRANCH  52  57
BRANCH  53  59
ATOM     59  O   UNL     1       7.483   5.326  -3.198  1.00  0.00    +0.000 OA
ATOM     60  C   UNL     1       6.555   6.315  -2.774  1.00  0.00    +0.000 C 
ENDBRANCH  53  59
ENDBRANCH  47  49
ENDBRANCH  46  47
ENDBRANCH  45  46
ENDBRANCH  35  45
ENDBRANCH  32  33
ENDBRANCH  16  32
BRANCH  12  61
ATOM     61  O   UNL     1      -5.132   0.216  -0.922  1.00  0.00    +0.000 OA
BRANCH  61  62
ATOM     62  C   UNL     1      -6.228  -0.300  -1.692  1.00  0.00    +0.000 C 
ATOM     63  O   UNL     1      -5.988  -1.617  -2.162  1.00  0.00    +0.000 OA
ATOM     64  C   UNL     1      -7.077  -2.146  -2.936  1.00  0.00    +0.000 C 
ATOM     65  C   UNL     1      -7.392  -1.267  -4.156  1.00  0.00    +0.000 C 
ATOM     66  C   UNL     1      -7.586   0.185  -3.728  1.00  0.00    +0.000 C 
ATOM     67  C   UNL     1      -6.411   0.657  -2.881  1.00  0.00    +0.000 C 
BRANCH  67  68
ATOM     68  O   UNL     1      -6.661   1.998  -2.442  1.00  0.00    +0.000 OA
ATOM     69  H   UNL     1      -5.916   2.203  -1.840  1.00  0.00    +0.000 HD
ENDBRANCH  67  68
BRANCH  66  70
ATOM     70  O   UNL     1      -7.730   1.008  -4.895  1.00  0.00    +0.000 OA
ATOM     71  H   UNL     1      -7.640   1.926  -4.571  1.00  0.00    +0.000 HD
ENDBRANCH  66  70
BRANCH  65  72
ATOM     72  O   UNL     1      -8.591  -1.713  -4.801  1.00  0.00    +0.000 OA
ATOM     73  H   UNL     1      -8.763  -1.049  -5.498  1.00  0.00    +0.000 HD
ENDBRANCH  65  72
BRANCH  64  74
ATOM     74  C   UNL     1      -6.716  -3.580  -3.349  1.00  0.00    +0.000 C 
BRANCH  74  75
ATOM     75  O   UNL     1      -5.594  -3.598  -4.228  1.00  0.00    +0.000 OA
ATOM     76  H   UNL     1      -5.368  -4.531  -4.374  1.00  0.00    +0.000 HD
ENDBRANCH  74  75
ENDBRANCH  64  74
ENDBRANCH  61  62
ENDBRANCH  12  61
TORSDOF 25
