REMARK  Name = SANCDB_00868_minRM1.pdb
AUTHORGENERATED BY OPEN BABEL 2.3.2
REMARK  13 active torsions:
REMARK  status: ('A' for Active; 'I' for Inactive)
REMARK    1  A    between atoms: C_1  and  C_2
REMARK    2  A    between atoms: C_3  and  O_39
REMARK    3  A    between atoms: C_4  and  N_38
REMARK    4  A    between atoms: C_6  and  O_8
REMARK    5  A    between atoms: O_8  and  C_9
REMARK    6  A    between atoms: C_11  and  C_33
REMARK    7  A    between atoms: C_11  and  O_37
REMARK    8  A    between atoms: C_15  and  O_32
REMARK    9  A    between atoms: C_18  and  O_19
REMARK   10  A    between atoms: C_26  and  O_30
REMARK   11  A    between atoms: O_30  and  C_31
REMARK   12  A    between atoms: C_33  and  C_35
REMARK   13  A    between atoms: C_35  and  O_36
REMARK                            x       y       z     vdW  Elec       q    Type
REMARK                         _______ _______ _______ _____ _____    ______ ____
ROOT
ATOM      1  C   UNL     1      -1.249   0.627  -0.915  1.00  0.00    +0.000 C 
ATOM      2  C   UNL     1      -1.935   1.819  -1.584  1.00  0.00    +0.000 C 
ATOM      3  C   UNL     1      -1.373   3.146  -1.064  1.00  0.00    +0.000 C 
ATOM      4  C   UNL     1       0.134   3.239  -1.359  1.00  0.00    +0.000 C 
ATOM      5  C   UNL     1       0.918   1.953  -1.155  1.00  0.00    +0.000 A 
ATOM      6  C   UNL     1       0.263   0.718  -0.980  1.00  0.00    +0.000 A 
ATOM      7  C   UNL     1       1.036  -0.443  -0.794  1.00  0.00    +0.000 A 
ATOM      8  C   UNL     1       2.442  -0.396  -0.783  1.00  0.00    +0.000 A 
ATOM      9  C   UNL     1       3.092   0.816  -0.998  1.00  0.00    +0.000 A 
ATOM     10  C   UNL     1       2.328   1.981  -1.175  1.00  0.00    +0.000 A 
ATOM     11  C   UNL     1       4.572   0.825  -1.083  1.00  0.00    +0.000 C 
ATOM     12  O   UNL     1       5.194   1.739  -1.611  1.00  0.00    +0.000 OA
ATOM     13  C   UNL     1       5.326  -0.325  -0.548  1.00  0.00    +0.000 A 
ATOM     14  C   UNL     1       4.681  -1.528  -0.257  1.00  0.00    +0.000 A 
ATOM     15  C   UNL     1       3.228  -1.627  -0.543  1.00  0.00    +0.000 C 
ATOM     16  O   UNL     1       2.634  -2.700  -0.592  1.00  0.00    +0.000 OA
ATOM     17  C   UNL     1       5.421  -2.608   0.267  1.00  0.00    +0.000 A 
ATOM     18  C   UNL     1       6.800  -2.456   0.475  1.00  0.00    +0.000 A 
ATOM     19  C   UNL     1       7.440  -1.257   0.162  1.00  0.00    +0.000 A 
ATOM     20  C   UNL     1       6.706  -0.192  -0.348  1.00  0.00    +0.000 A 
ENDROOT
BRANCH  10  21
ATOM     21  O   UNL     1       2.967   3.183  -1.315  1.00  0.00    +0.000 OA
ATOM     22  H   UNL     1       2.537   3.704  -2.013  1.00  0.00    +0.000 HD
ENDBRANCH  10  21
BRANCH  17  23
ATOM     23  O   UNL     1       4.739  -3.748   0.595  1.00  0.00    +0.000 OA
ATOM     24  C   UNL     1       5.489  -4.933   0.829  1.00  0.00    +0.000 C 
ENDBRANCH  17  23
BRANCH   7  25
ATOM     25  O   UNL     1       0.354  -1.623  -0.622  1.00  0.00    +0.000 OA
ATOM     26  H   UNL     1       1.009  -2.359  -0.567  1.00  0.00    +0.000 HD
ENDBRANCH   7  25
BRANCH   3  27
ATOM     27  C   UNL     1      -2.123   4.290  -1.767  1.00  0.00    +0.000 C 
ATOM     28  O   UNL     1      -1.723   4.805  -2.817  1.00  0.00    +0.000 OA
BRANCH  27  29
ATOM     29  C   UNL     1      -3.430   4.763  -1.135  1.00  0.00    +0.000 C 
BRANCH  29  30
ATOM     30  O   UNL     1      -4.180   5.570  -2.035  1.00  0.00    +0.000 OA
ATOM     31  H   UNL     1      -3.525   6.004  -2.618  1.00  0.00    +0.000 HD
ENDBRANCH  29  30
ENDBRANCH  27  29
ENDBRANCH   3  27
BRANCH   3  32
ATOM     32  O   UNL     1      -1.578   3.301   0.344  1.00  0.00    +0.000 OA
ATOM     33  H   UNL     1      -1.554   2.405   0.747  1.00  0.00    +0.000 HD
ENDBRANCH   3  32
BRANCH   1  34
ATOM     34  O   UNL     1      -1.593   0.643   0.479  1.00  0.00    +0.000 OA
BRANCH  34  40
ATOM     35  C   UNL     1      -4.611  -2.174  -0.805  1.00  0.00    +0.000 C 
ATOM     36  C   UNL     1      -4.706  -1.230   0.388  1.00  0.00    +0.000 C 
ATOM     37  C   UNL     1      -4.575  -1.934   1.758  1.00  0.00    +0.000 C 
ATOM     38  C   UNL     1      -4.024  -0.941   2.795  1.00  0.00    +0.000 C 
ATOM     39  C   UNL     1      -2.661  -0.394   2.346  1.00  0.00    +0.000 C 
ATOM     40  C   UNL     1      -2.510  -0.400   0.822  1.00  0.00    +0.000 C 
ATOM     41  O   UNL     1      -3.774  -0.147   0.218  1.00  0.00    +0.000 OA
BRANCH  38  42
ATOM     42  N   UNL     1      -3.887  -1.594   4.111  1.00  0.00    +0.000 NA
ATOM     43  H   UNL     1      -4.813  -1.821   4.475  1.00  0.00    +0.000 HD
ATOM     44  H   UNL     1      -3.486  -0.929   4.775  1.00  0.00    +0.000 HD
ENDBRANCH  38  42
BRANCH  37  45
ATOM     45  O   UNL     1      -3.685  -3.056   1.702  1.00  0.00    +0.000 OA
ATOM     46  H   UNL     1      -3.438  -3.225   2.636  1.00  0.00    +0.000 HD
ENDBRANCH  37  45
ENDBRANCH  34  40
ENDBRANCH   1  34
TORSDOF 11
