REMARK  Name = /srv/my_project/app/compsite/backup/Dave/CORINA_stuff/newPDBs/SANC00186.pdb
AUTHORGENERATED BY OPEN BABEL 2.3.2
REMARK  10 active torsions:
REMARK  status: ('A' for Active; 'I' for Inactive)
REMARK    1  A    between atoms: C_2  and  C_3
REMARK    2  A    between atoms: C_2  and  C_4
REMARK    3  A    between atoms: C_4  and  C_5
REMARK    4  A    between atoms: C_4  and  C_6
REMARK    5  A    between atoms: C_6  and  C_7
REMARK    6  A    between atoms: C_7  and  C_8
REMARK    7  A    between atoms: C_8  and  C_9
REMARK    8  A    between atoms: C_12  and  O_13
REMARK    9  A    between atoms: C_15  and  C_16
REMARK   10  A    between atoms: C_23  and  O_24
REMARK                            x       y       z     vdW  Elec       q    Type
REMARK                         _______ _______ _______ _____ _____    ______ ____
ROOT
ATOM      1  C   UNL     1       0.259  -0.022  -1.052  1.00  0.00    +0.000 C 
ATOM      2  C   UNL     1       0.561   0.615  -2.450  1.00  0.00    +0.000 C 
ATOM      3  C   UNL     1      -0.027  -1.546  -1.322  1.00  0.00    +0.000 C 
ATOM      4 CL   UNL     1       0.517  -2.663  -0.008  1.00  0.00    +0.000 Cl
ATOM      5  C   UNL     1      -1.524  -1.783  -1.600  1.00  0.00    +0.000 C 
ATOM      6  C   UNL     1      -2.385  -1.496  -0.364  1.00  0.00    +0.000 C 
ATOM      7  C   UNL     1      -2.083  -0.127   0.311  1.00  0.00    +0.000 C 
ATOM      8  C   UNL     1      -1.527  -0.396   1.740  1.00  0.00    +0.000 C 
ATOM      9  C   UNL     1      -1.055   0.724  -0.522  1.00  0.00    +0.000 C 
ATOM     10  C   UNL     1      -0.788   2.103   0.146  1.00  0.00    +0.000 C 
ATOM     11  C   UNL     1      -2.064   2.832   0.458  1.00  0.00    +0.000 C 
ATOM     12  C   UNL     1      -3.226   2.183   0.596  1.00  0.00    +0.000 C 
ATOM     13  C   UNL     1      -4.594   2.767   0.562  1.00  0.00    +0.000 C 
ATOM     14  O   UNL     1      -5.361   1.839  -0.232  1.00  0.00    +0.000 OA
ATOM     15  C   UNL     1      -4.547   0.683  -0.495  1.00  0.00    +0.000 C 
ATOM     16  C   UNL     1      -3.406   0.695   0.530  1.00  0.00    +0.000 C 
ENDROOT
BRANCH   5  17
ATOM     17  O   UNL     1      -1.752  -3.121  -2.049  1.00  0.00    +0.000 OA
ATOM     18  H   UNL     1      -2.708  -3.222  -2.199  1.00  0.00    +0.000 HD
ENDBRANCH   5  17
BRANCH  15  19
ATOM     19  O   UNL     1      -4.107   0.729  -1.840  1.00  0.00    +0.000 OA
ATOM     20  H   UNL     1      -3.757   1.628  -1.952  1.00  0.00    +0.000 HD
ENDBRANCH  15  19
BRANCH   1  21
ATOM     21  C   UNL     1       1.511   0.257  -0.151  1.00  0.00    +0.000 C 
BRANCH  21  22
ATOM     22  C   UNL     1       2.865  -0.293  -0.646  1.00  0.00    +0.000 C 
BRANCH  22  23
ATOM     23  C   UNL     1       4.042   0.093   0.286  1.00  0.00    +0.000 C 
ATOM     24  C   UNL     1       5.371  -0.353  -0.334  1.00  0.00    +0.000 C 
BRANCH  23  26
ATOM     25  C   UNL     1       3.602  -1.688   2.025  1.00  0.00    +0.000 C 
ATOM     26  C   UNL     1       3.939  -0.424   1.715  1.00  0.00    +0.000 C 
ATOM     27  C   UNL     1       4.256   0.575   2.794  1.00  0.00    +0.000 C 
ENDBRANCH  23  26
ENDBRANCH  22  23
ENDBRANCH  21  22
ENDBRANCH   1  21
TORSDOF 6
