REMARK  Name = SANCDB_00961_minRM1.pdb
AUTHORGENERATED BY OPEN BABEL 2.3.2
REMARK  2 active torsions:
REMARK  status: ('A' for Active; 'I' for Inactive)
REMARK    1  A    between atoms: C_1  and  O_2
REMARK    2  A    between atoms: O_2  and  C_3
REMARK                            x       y       z     vdW  Elec       q    Type
REMARK                         _______ _______ _______ _____ _____    ______ ____
ROOT
ATOM      1  C   UNL     1      -0.317   0.640   0.204  1.00  0.00    +0.000 A 
ATOM      2  C   UNL     1       0.971   0.120   0.463  1.00  0.00    +0.000 A 
ATOM      3  C   UNL     1       1.972   0.839   1.250  1.00  0.00    +0.000 A 
ATOM      4  C   UNL     1       3.176   0.303   1.467  1.00  0.00    +0.000 A 
ATOM      5  C   UNL     1       3.562  -1.014   0.938  1.00  0.00    +0.000 A 
ATOM      6  O   UNL     1       4.675  -1.477   1.155  1.00  0.00    +0.000 OA
ATOM      7  O   UNL     1       2.607  -1.690   0.192  1.00  0.00    +0.000 OA
ATOM      8  C   UNL     1       1.329  -1.141  -0.048  1.00  0.00    +0.000 A 
ATOM      9  C   UNL     1       0.456  -1.911  -0.809  1.00  0.00    +0.000 A 
ATOM     10  C   UNL     1      -0.791  -1.379  -1.046  1.00  0.00    +0.000 A 
ATOM     11  C   UNL     1      -1.176  -0.143  -0.559  1.00  0.00    +0.000 A 
ATOM     12  O   UNL     1      -2.456   0.149  -0.934  1.00  0.00    +0.000 OA
ATOM     13  C   UNL     1      -2.819  -1.019  -1.693  1.00  0.00    +0.000 C 
ATOM     14  O   UNL     1      -1.766  -1.994  -1.769  1.00  0.00    +0.000 OA
ENDROOT
BRANCH   1  16
ATOM     15  C   UNL     1      -1.867   2.438   0.503  1.00  0.00    +0.000 C 
ATOM     16  O   UNL     1      -0.585   1.872   0.736  1.00  0.00    +0.000 OA
ENDBRANCH   1  16
TORSDOF 1
