REMARK  Name = /srv/my_project/app/compsite/backup/Dave/CORINA_stuff/newPDBs/SANC00502.pdb
AUTHORGENERATED BY OPEN BABEL 2.3.2
REMARK  37 active torsions:
REMARK  status: ('A' for Active; 'I' for Inactive)
REMARK    1  A    between atoms: C_2  and  O_3
REMARK    2  A    between atoms: O_3  and  C_4
REMARK    3  A    between atoms: C_8  and  C_9
REMARK    4  A    between atoms: C_19  and  C_20
REMARK    5  A    between atoms: C_24  and  O_26
REMARK    6  A    between atoms: O_26  and  C_27
REMARK    7  A    between atoms: C_31  and  O_33
REMARK    8  A    between atoms: C_34  and  O_36
REMARK    9  A    between atoms: O_36  and  C_37
REMARK   10  A    between atoms: C_41  and  O_43
REMARK   11  A    between atoms: C_44  and  O_46
REMARK   12  A    between atoms: C_47  and  O_49
REMARK   13  A    between atoms: O_49  and  C_50
REMARK   14  A    between atoms: C_50  and  C_52
REMARK   15  A    between atoms: C_54  and  O_55
REMARK   16  A    between atoms: O_55  and  C_56
REMARK   17  A    between atoms: C_57  and  O_58
REMARK   18  A    between atoms: O_58  and  C_59
REMARK   19  A    between atoms: C_60  and  O_61
REMARK   20  A    between atoms: O_61  and  C_62
REMARK   21  A    between atoms: C_64  and  O_66
REMARK   22  A    between atoms: O_66  and  C_67
REMARK   23  A    between atoms: C_67  and  C_68
REMARK   24  A    between atoms: C_70  and  O_71
REMARK   25  A    between atoms: C_70  and  C_72
REMARK   26  A    between atoms: C_72  and  C_74
REMARK   27  A    between atoms: C_72  and  C_75
REMARK   28  A    between atoms: C_75  and  C_77
REMARK   29  A    between atoms: C_77  and  C_78
REMARK   30  A    between atoms: C_78  and  C_79
REMARK   31  A    between atoms: C_79  and  C_80
REMARK   32  A    between atoms: C_79  and  C_81
REMARK   33  A    between atoms: C_84  and  C_86
REMARK   34  A    between atoms: C_86  and  O_87
REMARK   35  A    between atoms: C_88  and  O_90
REMARK   36  A    between atoms: C_91  and  O_93
REMARK   37  A    between atoms: C_94  and  O_96
REMARK                            x       y       z     vdW  Elec       q    Type
REMARK                         _______ _______ _______ _____ _____    ______ ____
ROOT
ATOM      1  C   UNL     1       5.503  -1.507   4.445  1.00  0.00    +0.000 C 
ATOM      2  C   UNL     1       4.512  -1.445   5.608  1.00  0.00    +0.000 C 
ATOM      3  C   UNL     1       3.067  -1.486   5.116  1.00  0.00    +0.000 C 
ATOM      4  C   UNL     1       2.708  -0.378   4.082  1.00  0.00    +0.000 C 
ATOM      5  C   UNL     1       2.682   0.997   4.789  1.00  0.00    +0.000 C 
ATOM      6  C   UNL     1       3.794  -0.333   2.998  1.00  0.00    +0.000 C 
ATOM      7  C   UNL     1       3.510  -0.273   1.684  1.00  0.00    +0.000 C 
ATOM      8  C   UNL     1       2.131  -0.218   1.111  1.00  0.00    +0.000 C 
ATOM      9  C   UNL     1       1.034   0.068   2.148  1.00  0.00    +0.000 C 
ATOM     10  C   UNL     1       1.300  -0.729   3.454  1.00  0.00    +0.000 C 
ATOM     11  C   UNL     1       0.116  -0.617   4.448  1.00  0.00    +0.000 C 
ATOM     12  C   UNL     1      -1.254  -0.909   3.811  1.00  0.00    +0.000 C 
ATOM     13  C   UNL     1      -1.521  -0.034   2.566  1.00  0.00    +0.000 C 
ATOM     14  C   UNL     1      -1.622   1.456   2.984  1.00  0.00    +0.000 C 
ATOM     15  C   UNL     1      -0.347  -0.309   1.592  1.00  0.00    +0.000 C 
ATOM     16  C   UNL     1      -0.792   0.363   0.306  1.00  0.00    +0.000 C 
ATOM     17  C   UNL     1      -2.299   0.037   0.212  1.00  0.00    +0.000 C 
ATOM     18  C   UNL     1      -2.744  -0.443   1.657  1.00  0.00    +0.000 C 
ATOM     19  C   UNL     1       5.235  -0.361   3.463  1.00  0.00    +0.000 C 
ENDROOT
BRANCH  18  20
ATOM     20  C   UNL     1      -4.150   0.082   2.084  1.00  0.00    +0.000 C 
ATOM     21  C   UNL     1      -4.632  -0.454   3.433  1.00  0.00    +0.000 C 
BRANCH  20  22
ATOM     22  C   UNL     1      -5.202  -0.297   1.037  1.00  0.00    +0.000 C 
ATOM     23  O   UNL     1      -5.024  -1.276   0.299  1.00  0.00    +0.000 OA
BRANCH  22  24
ATOM     24  C   UNL     1      -6.534   0.441   0.991  1.00  0.00    +0.000 C 
BRANCH  24  25
ATOM     25  C   UNL     1      -6.489   1.913   1.397  1.00  0.00    +0.000 C 
BRANCH  25  26
ATOM     26  C   UNL     1      -7.841   2.636   1.235  1.00  0.00    +0.000 C 
ATOM     27  C   UNL     1      -7.769   4.024   1.879  1.00  0.00    +0.000 C 
ATOM     28  C   UNL     1      -8.265   2.776  -0.228  1.00  0.00    +0.000 C 
ENDBRANCH  25  26
ENDBRANCH  24  25
ENDBRANCH  22  24
ENDBRANCH  20  22
ENDBRANCH  18  20
BRANCH  18  29
ATOM     29  O   UNL     1      -2.783  -1.889   1.628  1.00  0.00    +0.000 OA
ATOM     30  H   UNL     1      -3.530  -2.136   1.038  1.00  0.00    +0.000 HD
ENDBRANCH  18  29
BRANCH  17  31
ATOM     31  O   UNL     1      -3.046   1.169  -0.246  1.00  0.00    +0.000 OA
BRANCH  31  32
ATOM     32  C   UNL     1      -2.783   1.533  -1.606  1.00  0.00    +0.000 C 
ATOM     33  O   UNL     1      -3.142   2.914  -1.796  1.00  0.00    +0.000 OA
ATOM     34  C   UNL     1      -4.510   3.081  -2.153  1.00  0.00    +0.000 C 
ATOM     35  C   UNL     1      -4.778   2.506  -3.547  1.00  0.00    +0.000 C 
ATOM     36  C   UNL     1      -3.747   1.416  -3.895  1.00  0.00    +0.000 C 
ATOM     37  C   UNL     1      -3.466   0.583  -2.635  1.00  0.00    +0.000 C 
BRANCH  35  38
ATOM     38  O   UNL     1      -6.106   1.974  -3.584  1.00  0.00    +0.000 OA
ATOM     39  H   UNL     1      -6.099   1.277  -4.275  1.00  0.00    +0.000 HD
ENDBRANCH  35  38
BRANCH  37  40
ATOM     40  O   UNL     1      -2.549  -0.501  -2.927  1.00  0.00    +0.000 OA
BRANCH  40  41
ATOM     41  C   UNL     1      -3.119  -1.691  -3.268  1.00  0.00    +0.000 C 
ATOM     42  C   UNL     1      -2.080  -2.766  -3.370  1.00  0.00    +0.000 C 
ATOM     43  O   UNL     1      -4.312  -1.886  -3.450  1.00  0.00    +0.000 OA
ENDBRANCH  40  41
ENDBRANCH  37  40
BRANCH  36  44
ATOM     44  O   UNL     1      -4.261   0.619  -4.973  1.00  0.00    +0.000 OA
BRANCH  44  45
ATOM     45  C   UNL     1      -3.817   1.060  -6.260  1.00  0.00    +0.000 C 
ATOM     46  O   UNL     1      -4.903   0.987  -7.189  1.00  0.00    +0.000 OA
ATOM     47  C   UNL     1      -4.943  -0.245  -7.906  1.00  0.00    +0.000 C 
ATOM     48  C   UNL     1      -3.707  -0.396  -8.809  1.00  0.00    +0.000 C 
ATOM     49  C   UNL     1      -2.473   0.296  -8.201  1.00  0.00    +0.000 C 
ATOM     50  C   UNL     1      -2.569   0.241  -6.680  1.00  0.00    +0.000 C 
BRANCH  49  51
ATOM     51  O   UNL     1      -1.285  -0.341  -8.685  1.00  0.00    +0.000 OA
ATOM     52  H   UNL     1      -1.328  -0.285  -9.659  1.00  0.00    +0.000 HD
ENDBRANCH  49  51
BRANCH  48  53
ATOM     53  O   UNL     1      -3.919   0.188 -10.103  1.00  0.00    +0.000 OA
ATOM     54  H   UNL     1      -4.734  -0.195 -10.474  1.00  0.00    +0.000 HD
ENDBRANCH  48  53
BRANCH  50  55
ATOM     55  O   UNL     1      -1.411   0.823  -6.037  1.00  0.00    +0.000 OA
BRANCH  55  56
ATOM     56  C   UNL     1      -0.511  -0.060  -5.538  1.00  0.00    +0.000 C 
ATOM     57  O   UNL     1      -0.516  -1.270  -5.699  1.00  0.00    +0.000 OA
BRANCH  56  58
ATOM     58  C   UNL     1       0.445   0.625  -4.623  1.00  0.00    +0.000 A 
ATOM     59  C   UNL     1       0.394   2.007  -4.387  1.00  0.00    +0.000 A 
ATOM     60  C   UNL     1       1.246   2.589  -3.447  1.00  0.00    +0.000 A 
ATOM     61  C   UNL     1       2.177   1.777  -2.775  1.00  0.00    +0.000 A 
ATOM     62  C   UNL     1       2.234   0.391  -2.998  1.00  0.00    +0.000 A 
ATOM     63  C   UNL     1       1.367  -0.176  -3.931  1.00  0.00    +0.000 A 
BRANCH  61  64
ATOM     64  O   UNL     1       2.981   2.336  -1.806  1.00  0.00    +0.000 OA
ATOM     65  C   UNL     1       4.214   2.762  -2.385  1.00  0.00    +0.000 C 
ENDBRANCH  61  64
BRANCH  62  66
ATOM     66  O   UNL     1       3.160  -0.304  -2.264  1.00  0.00    +0.000 OA
ATOM     67  C   UNL     1       3.151  -1.722  -2.365  1.00  0.00    +0.000 C 
ENDBRANCH  62  66
BRANCH  60  68
ATOM     68  O   UNL     1       1.260   3.922  -3.128  1.00  0.00    +0.000 OA
ATOM     69  C   UNL     1       0.143   4.702  -3.534  1.00  0.00    +0.000 C 
ENDBRANCH  60  68
ENDBRANCH  56  58
ENDBRANCH  55  56
ENDBRANCH  50  55
ENDBRANCH  44  45
ENDBRANCH  36  44
ENDBRANCH  31  32
ENDBRANCH  17  31
BRANCH   1  70
ATOM     70  O   UNL     1       6.816  -1.402   5.013  1.00  0.00    +0.000 OA
BRANCH  70  71
ATOM     71  C   UNL     1       7.847  -1.944   4.175  1.00  0.00    +0.000 C 
ATOM     72  O   UNL     1       7.689  -3.369   4.172  1.00  0.00    +0.000 OA
ATOM     73  C   UNL     1       8.913  -4.093   4.219  1.00  0.00    +0.000 C 
ATOM     74  C   UNL     1       9.676  -3.822   5.534  1.00  0.00    +0.000 C 
ATOM     75  C   UNL     1       9.614  -2.336   5.937  1.00  0.00    +0.000 C 
ATOM     76  C   UNL     1       9.203  -1.450   4.749  1.00  0.00    +0.000 C 
BRANCH  76  77
ATOM     77  O   UNL     1      10.208  -1.460   3.724  1.00  0.00    +0.000 OA
ATOM     78  H   UNL     1      11.078  -1.391   4.160  1.00  0.00    +0.000 HD
ENDBRANCH  76  77
BRANCH  75  79
ATOM     79  O   UNL     1       8.719  -2.154   7.045  1.00  0.00    +0.000 OA
ATOM     80  H   UNL     1       7.807  -2.102   6.692  1.00  0.00    +0.000 HD
ENDBRANCH  75  79
BRANCH  74  81
ATOM     81  O   UNL     1      11.047  -4.221   5.380  1.00  0.00    +0.000 OA
ATOM     82  H   UNL     1      11.018  -5.136   5.024  1.00  0.00    +0.000 HD
ENDBRANCH  74  81
BRANCH  73  83
ATOM     83  C   UNL     1       8.599  -5.590   4.078  1.00  0.00    +0.000 C 
BRANCH  83  84
ATOM     84  O   UNL     1       9.791  -6.369   4.160  1.00  0.00    +0.000 OA
ATOM     85  H   UNL     1       9.534  -7.292   3.977  1.00  0.00    +0.000 HD
ENDBRANCH  83  84
ENDBRANCH  73  83
ENDBRANCH  70  71
ENDBRANCH   1  70
TORSDOF 28
