REMARK  Name = SANCDB_01084_minRM1.pdb
AUTHORGENERATED BY OPEN BABEL 2.3.2
REMARK  14 active torsions:
REMARK  status: ('A' for Active; 'I' for Inactive)
REMARK    1  A    between atoms: C_1  and  O_2
REMARK    2  A    between atoms: O_2  and  C_3
REMARK    3  A    between atoms: C_5  and  C_23
REMARK    4  A    between atoms: C_7  and  O_21
REMARK    5  A    between atoms: C_8  and  O_9
REMARK    6  A    between atoms: O_9  and  C_10
REMARK    7  A    between atoms: C_11  and  O_20
REMARK    8  A    between atoms: C_12  and  O_19
REMARK    9  A    between atoms: C_13  and  O_18
REMARK   10  A    between atoms: C_14  and  C_16
REMARK   11  A    between atoms: C_16  and  O_17
REMARK   12  A    between atoms: O_21  and  C_22
REMARK   13  A    between atoms: C_24  and  C_25
REMARK   14  A    between atoms: C_25  and  O_26
REMARK                            x       y       z     vdW  Elec       q    Type
REMARK                         _______ _______ _______ _____ _____    ______ ____
ROOT
ATOM      1  O   UNL     1      -1.159   0.182  -0.303  1.00  0.00    +0.000 OA
ENDROOT
BRANCH   1   7
ATOM      2  C   UNL     1       0.463  -1.546  -0.048  1.00  0.00    +0.000 A 
ATOM      3  C   UNL     1       1.798  -1.954  -0.074  1.00  0.00    +0.000 A 
ATOM      4  C   UNL     1       2.818  -1.040  -0.378  1.00  0.00    +0.000 A 
ATOM      5  C   UNL     1       2.496   0.299  -0.646  1.00  0.00    +0.000 A 
ATOM      6  C   UNL     1       1.167   0.729  -0.630  1.00  0.00    +0.000 A 
ATOM      7  C   UNL     1       0.163  -0.199  -0.303  1.00  0.00    +0.000 A 
BRANCH   2   9
ATOM      8  C   UNL     1      -0.335  -3.717   0.533  1.00  0.00    +0.000 C 
ATOM      9  O   UNL     1      -0.608  -2.362   0.204  1.00  0.00    +0.000 OA
ENDBRANCH   2   9
BRANCH   6  10
ATOM     10  O   UNL     1       0.750   2.009  -0.901  1.00  0.00    +0.000 OA
ATOM     11  C   UNL     1       1.735   2.919  -1.382  1.00  0.00    +0.000 C 
ENDBRANCH   6  10
BRANCH   4  12
ATOM     12  C   UNL     1       4.210  -1.509  -0.364  1.00  0.00    +0.000 C 
ATOM     13  C   UNL     1       5.106  -1.208  -1.318  1.00  0.00    +0.000 C 
BRANCH  13  14
ATOM     14  C   UNL     1       6.520  -1.692  -1.306  1.00  0.00    +0.000 C 
BRANCH  14  15
ATOM     15  O   UNL     1       6.718  -2.578  -2.394  1.00  0.00    +0.000 OA
ATOM     16  H   UNL     1       6.370  -2.151  -3.194  1.00  0.00    +0.000 HD
ENDBRANCH  14  15
ENDBRANCH  13  14
ENDBRANCH   4  12
ENDBRANCH   1   7
BRANCH   1  17
ATOM     17  C   UNL     1      -1.502   0.923   0.881  1.00  0.00    +0.000 C 
ATOM     18  C   UNL     1      -2.398   2.102   0.444  1.00  0.00    +0.000 C 
ATOM     19  C   UNL     1      -3.420   2.389   1.529  1.00  0.00    +0.000 C 
ATOM     20  C   UNL     1      -4.317   1.167   1.706  1.00  0.00    +0.000 C 
ATOM     21  C   UNL     1      -3.500  -0.134   1.838  1.00  0.00    +0.000 C 
ATOM     22  O   UNL     1      -2.082   0.086   1.888  1.00  0.00    +0.000 OA
BRANCH  20  23
ATOM     23  O   UNL     1      -5.120   1.371   2.883  1.00  0.00    +0.000 OA
ATOM     24  H   UNL     1      -5.498   2.267   2.778  1.00  0.00    +0.000 HD
ENDBRANCH  20  23
BRANCH  19  25
ATOM     25  O   UNL     1      -4.231   3.521   1.173  1.00  0.00    +0.000 OA
ATOM     26  H   UNL     1      -3.598   4.176   0.814  1.00  0.00    +0.000 HD
ENDBRANCH  19  25
BRANCH  18  27
ATOM     27  O   UNL     1      -1.628   3.295   0.199  1.00  0.00    +0.000 OA
ATOM     28  H   UNL     1      -0.904   3.021  -0.402  1.00  0.00    +0.000 HD
ENDBRANCH  18  27
BRANCH  21  29
ATOM     29  C   UNL     1      -3.878  -1.184   0.781  1.00  0.00    +0.000 C 
BRANCH  29  30
ATOM     30  O   UNL     1      -3.680  -0.713  -0.547  1.00  0.00    +0.000 OA
ATOM     31  H   UNL     1      -2.721  -0.811  -0.727  1.00  0.00    +0.000 HD
ENDBRANCH  29  30
ENDBRANCH  21  29
ENDBRANCH   1  17
TORSDOF 12
