REMARK  Name = SANCDB_00884_minRM1.pdb
AUTHORGENERATED BY OPEN BABEL 2.3.2
REMARK  6 active torsions:
REMARK  status: ('A' for Active; 'I' for Inactive)
REMARK    1  A    between atoms: C_1  and  O_2
REMARK    2  A    between atoms: O_2  and  C_3
REMARK    3  A    between atoms: C_4  and  O_21
REMARK    4  A    between atoms: C_5  and  O_20
REMARK    5  A    between atoms: C_10  and  C_14
REMARK    6  A    between atoms: O_21  and  C_22
REMARK                            x       y       z     vdW  Elec       q    Type
REMARK                         _______ _______ _______ _____ _____    ______ ____
ROOT
ATOM      1  C   UNL     1      -2.787   0.762   0.028  1.00  0.00    +0.000 A 
ATOM      2  C   UNL     1      -3.130  -0.421  -0.652  1.00  0.00    +0.000 A 
ATOM      3  C   UNL     1      -2.142  -1.314  -1.087  1.00  0.00    +0.000 A 
ATOM      4  C   UNL     1      -0.800  -1.033  -0.817  1.00  0.00    +0.000 A 
ATOM      5  C   UNL     1      -0.454   0.128  -0.129  1.00  0.00    +0.000 A 
ATOM      6  C   UNL     1      -1.440   1.024   0.294  1.00  0.00    +0.000 A 
ATOM      7  O   UNL     1       0.847   0.459   0.167  1.00  0.00    +0.000 OA
ATOM      8  C   UNL     1       1.857  -0.404  -0.228  1.00  0.00    +0.000 A 
ATOM      9  C   UNL     1       1.653  -1.544  -0.903  1.00  0.00    +0.000 A 
ATOM     10  C   UNL     1       0.278  -1.934  -1.243  1.00  0.00    +0.000 A 
ATOM     11  O   UNL     1       0.039  -2.969  -1.855  1.00  0.00    +0.000 OA
ENDROOT
BRANCH   8  12
ATOM     12  C   UNL     1       3.213   0.048   0.135  1.00  0.00    +0.000 A 
ATOM     13  C   UNL     1       3.571   1.395  -0.032  1.00  0.00    +0.000 A 
ATOM     14  C   UNL     1       4.848   1.843   0.314  1.00  0.00    +0.000 A 
ATOM     15  C   UNL     1       5.782   0.952   0.838  1.00  0.00    +0.000 A 
ATOM     16  C   UNL     1       5.439  -0.386   1.019  1.00  0.00    +0.000 A 
ATOM     17  C   UNL     1       4.162  -0.835   0.673  1.00  0.00    +0.000 A 
ENDBRANCH   8  12
BRANCH   1  19
ATOM     18  C   UNL     1      -3.510   2.837   0.961  1.00  0.00    +0.000 C 
ATOM     19  O   UNL     1      -3.829   1.571   0.399  1.00  0.00    +0.000 OA
ENDBRANCH   1  19
BRANCH   3  20
ATOM     20  O   UNL     1      -2.528  -2.443  -1.764  1.00  0.00    +0.000 OA
ATOM     21  H   UNL     1      -1.724  -2.947  -2.020  1.00  0.00    +0.000 HD
ENDBRANCH   3  20
BRANCH   2  22
ATOM     22  O   UNL     1      -4.450  -0.656  -0.962  1.00  0.00    +0.000 OA
ATOM     23  C   UNL     1      -5.037  -1.511   0.018  1.00  0.00    +0.000 C 
ENDBRANCH   2  22
TORSDOF 4
