REMARK  Name = /srv/my_project/app/compsite/backup/Dave/CORINA_stuff/newPDBs/SANC00393.pdb
AUTHORGENERATED BY OPEN BABEL 2.3.2
REMARK  25 active torsions:
REMARK  status: ('A' for Active; 'I' for Inactive)
REMARK    1  A    between atoms: C_2  and  O_3
REMARK    2  A    between atoms: O_3  and  C_4
REMARK    3  A    between atoms: C_8  and  C_9
REMARK    4  A    between atoms: C_19  and  C_20
REMARK    5  A    between atoms: C_24  and  O_26
REMARK    6  A    between atoms: O_26  and  C_27
REMARK    7  A    between atoms: C_30  and  C_32
REMARK    8  A    between atoms: C_33  and  O_35
REMARK    9  A    between atoms: C_36  and  O_38
REMARK   10  A    between atoms: O_38  and  C_39
REMARK   11  A    between atoms: C_39  and  C_40
REMARK   12  A    between atoms: C_42  and  O_44
REMARK   13  A    between atoms: C_45  and  C_47
REMARK   14  A    between atoms: C_47  and  C_49
REMARK   15  A    between atoms: C_47  and  C_50
REMARK   16  A    between atoms: C_50  and  O_52
REMARK   17  A    between atoms: C_50  and  C_53
REMARK   18  A    between atoms: C_53  and  C_54
REMARK   19  A    between atoms: C_55  and  C_56
REMARK   20  A    between atoms: C_55  and  C_57
REMARK   21  A    between atoms: C_60  and  C_62
REMARK   22  A    between atoms: C_62  and  O_63
REMARK   23  A    between atoms: C_64  and  O_66
REMARK   24  A    between atoms: C_67  and  O_69
REMARK   25  A    between atoms: C_70  and  O_72
REMARK                            x       y       z     vdW  Elec       q    Type
REMARK                         _______ _______ _______ _____ _____    ______ ____
ROOT
ATOM      1  C   UNL     1       5.984  -0.624  -0.902  1.00  0.00    +0.000 C 
ATOM      2  C   UNL     1       5.753   0.813  -0.431  1.00  0.00    +0.000 C 
ATOM      3  C   UNL     1       4.389   0.965   0.244  1.00  0.00    +0.000 C 
ATOM      4  C   UNL     1       3.183   0.512  -0.631  1.00  0.00    +0.000 C 
ATOM      5  C   UNL     1       2.990   1.513  -1.796  1.00  0.00    +0.000 C 
ATOM      6  C   UNL     1       3.490  -0.866  -1.236  1.00  0.00    +0.000 C 
ATOM      7  C   UNL     1       2.606  -1.880  -1.230  1.00  0.00    +0.000 C 
ATOM      8  C   UNL     1       1.219  -1.800  -0.675  1.00  0.00    +0.000 C 
ATOM      9  C   UNL     1       0.754  -0.364  -0.385  1.00  0.00    +0.000 C 
ATOM     10  C   UNL     1       1.899   0.446   0.289  1.00  0.00    +0.000 C 
ATOM     11  C   UNL     1       1.426   1.828   0.818  1.00  0.00    +0.000 C 
ATOM     12  C   UNL     1       0.120   1.774   1.629  1.00  0.00    +0.000 C 
ATOM     13  C   UNL     1      -1.000   1.047   0.862  1.00  0.00    +0.000 C 
ATOM     14  C   UNL     1      -1.387   1.870  -0.386  1.00  0.00    +0.000 C 
ATOM     15  C   UNL     1      -0.476  -0.367   0.529  1.00  0.00    +0.000 C 
ATOM     16  C   UNL     1      -1.727  -1.105   0.069  1.00  0.00    +0.000 C 
ATOM     17  C   UNL     1      -2.842  -0.590   1.012  1.00  0.00    +0.000 C 
ATOM     18  C   UNL     1      -2.235   0.655   1.733  1.00  0.00    +0.000 C 
ATOM     19  C   UNL     1       4.860  -1.053  -1.850  1.00  0.00    +0.000 C 
ENDROOT
BRANCH  18  20
ATOM     20  C   UNL     1      -3.164   1.790   2.258  1.00  0.00    +0.000 C 
ATOM     21  C   UNL     1      -3.900   1.298   3.519  1.00  0.00    +0.000 C 
BRANCH  20  22
ATOM     22  C   UNL     1      -4.154   2.449   1.255  1.00  0.00    +0.000 C 
BRANCH  22  23
ATOM     23  O   UNL     1      -5.469   1.891   1.399  1.00  0.00    +0.000 OA
ATOM     24  H   UNL     1      -6.063   2.444   0.856  1.00  0.00    +0.000 HD
ENDBRANCH  22  23
BRANCH  22  25
ATOM     25  C   UNL     1      -4.239   3.974   1.500  1.00  0.00    +0.000 C 
BRANCH  25  26
ATOM     26  C   UNL     1      -5.000   4.687   0.408  1.00  0.00    +0.000 C 
ATOM     27  C   UNL     1      -6.229   5.236   0.476  1.00  0.00    +0.000 C 
ATOM     28  C   UNL     1      -7.128   5.210   1.683  1.00  0.00    +0.000 C 
ATOM     29  C   UNL     1      -6.821   5.941  -0.718  1.00  0.00    +0.000 C 
ENDBRANCH  25  26
ENDBRANCH  22  25
ENDBRANCH  20  22
ENDBRANCH  18  20
BRANCH  17  30
ATOM     30  O   UNL     1      -4.023  -0.283   0.291  1.00  0.00    +0.000 OA
BRANCH  30  31
ATOM     31  C   UNL     1      -4.795  -1.441  -0.073  1.00  0.00    +0.000 C 
ATOM     32  O   UNL     1      -4.203  -2.079  -1.198  1.00  0.00    +0.000 OA
ATOM     33  C   UNL     1      -4.934  -3.192  -1.726  1.00  0.00    +0.000 C 
ATOM     34  C   UNL     1      -4.755  -4.416  -0.831  1.00  0.00    +0.000 C 
ATOM     35  C   UNL     1      -6.410  -2.851  -2.034  1.00  0.00    +0.000 C 
ATOM     36  C   UNL     1      -7.092  -2.109  -0.877  1.00  0.00    +0.000 C 
ATOM     37  C   UNL     1      -6.213  -0.946  -0.400  1.00  0.00    +0.000 C 
BRANCH  37  38
ATOM     38  O   UNL     1      -6.824  -0.324   0.743  1.00  0.00    +0.000 OA
ATOM     39  H   UNL     1      -6.161   0.327   1.076  1.00  0.00    +0.000 HD
ENDBRANCH  37  38
BRANCH  35  40
ATOM     40  O   UNL     1      -6.455  -2.026  -3.209  1.00  0.00    +0.000 OA
ATOM     41  H   UNL     1      -7.386  -1.977  -3.492  1.00  0.00    +0.000 HD
ENDBRANCH  35  40
BRANCH  36  42
ATOM     42  O   UNL     1      -7.340  -3.005   0.231  1.00  0.00    +0.000 OA
BRANCH  42  43
ATOM     43  C   UNL     1      -8.451  -3.780   0.119  1.00  0.00    +0.000 C 
ATOM     44  C   UNL     1      -8.651  -4.576   1.371  1.00  0.00    +0.000 C 
ATOM     45  O   UNL     1      -9.169  -3.845  -0.869  1.00  0.00    +0.000 OA
ENDBRANCH  42  43
ENDBRANCH  36  42
ENDBRANCH  30  31
ENDBRANCH  17  30
BRANCH   1  46
ATOM     46  O   UNL     1       7.220  -0.692  -1.624  1.00  0.00    +0.000 OA
BRANCH  46  47
ATOM     47  C   UNL     1       8.291  -1.250  -0.855  1.00  0.00    +0.000 C 
ATOM     48  O   UNL     1       8.595  -0.433   0.273  1.00  0.00    +0.000 OA
ATOM     49  C   UNL     1       9.671  -0.978   1.064  1.00  0.00    +0.000 C 
ATOM     50  C   UNL     1      10.961  -1.069   0.240  1.00  0.00    +0.000 C 
ATOM     51  C   UNL     1      10.707  -1.888  -1.027  1.00  0.00    +0.000 C 
ATOM     52  C   UNL     1       9.508  -1.338  -1.794  1.00  0.00    +0.000 C 
BRANCH  52  53
ATOM     53  O   UNL     1       9.246  -2.191  -2.919  1.00  0.00    +0.000 OA
ATOM     54  H   UNL     1       8.408  -1.858  -3.301  1.00  0.00    +0.000 HD
ENDBRANCH  52  53
BRANCH  51  55
ATOM     55  O   UNL     1      11.884  -1.856  -1.849  1.00  0.00    +0.000 OA
ATOM     56  H   UNL     1      11.607  -2.240  -2.706  1.00  0.00    +0.000 HD
ENDBRANCH  51  55
BRANCH  50  57
ATOM     57  O   UNL     1      12.011  -1.680   0.991  1.00  0.00    +0.000 OA
ATOM     58  H   UNL     1      12.725  -1.851   0.343  1.00  0.00    +0.000 HD
ENDBRANCH  50  57
BRANCH  49  59
ATOM     59  C   UNL     1       9.849  -0.067   2.284  1.00  0.00    +0.000 C 
BRANCH  59  60
ATOM     60  O   UNL     1       8.609   0.027   2.991  1.00  0.00    +0.000 OA
ATOM     61  H   UNL     1       7.943   0.257   2.315  1.00  0.00    +0.000 HD
ENDBRANCH  59  60
ENDBRANCH  49  59
ENDBRANCH  46  47
ENDBRANCH   1  46
TORSDOF 18
