REMARK  Name = /srv/my_project/app/compsite/backup/Dave/CORINA_stuff/newPDBs/SANC00309.pdb
AUTHORGENERATED BY OPEN BABEL 2.3.2
REMARK  6 active torsions:
REMARK  status: ('A' for Active; 'I' for Inactive)
REMARK    1  A    between atoms: C_1  and  O_2
REMARK    2  A    between atoms: O_2  and  C_3
REMARK    3  A    between atoms: C_6  and  C_7
REMARK    4  A    between atoms: C_7  and  C_8
REMARK    5  A    between atoms: C_13  and  C_14
REMARK    6  A    between atoms: C_17  and  O_18
REMARK                            x       y       z     vdW  Elec       q    Type
REMARK                         _______ _______ _______ _____ _____    ______ ____
ROOT
ATOM      1  C   UNL     1      -0.701  -1.275  -1.500  1.00  0.00    +0.000 C 
ATOM      2  O   UNL     1      -0.373  -2.466  -2.155  1.00  0.00    +0.000 OA
ATOM      3  C   UNL     1      -1.292  -3.373  -1.687  1.00  0.00    +0.000 C 
ATOM      4  O   UNL     1      -1.315  -4.547  -2.035  1.00  0.00    +0.000 OA
ATOM      5  C   UNL     1      -2.268  -2.758  -0.716  1.00  0.00    +0.000 C 
ATOM      6  C   UNL     1      -1.749  -1.372  -0.683  1.00  0.00    +0.000 C 
ENDROOT
BRANCH   6   7
ATOM      7  C   UNL     1      -2.375  -0.333   0.127  1.00  0.00    +0.000 A 
ATOM      8  C   UNL     1      -1.650   0.306   1.142  1.00  0.00    +0.000 A 
ATOM      9  C   UNL     1      -2.245   1.299   1.922  1.00  0.00    +0.000 A 
ATOM     10  C   UNL     1      -3.569   1.654   1.694  1.00  0.00    +0.000 A 
ATOM     11  C   UNL     1      -4.305   1.019   0.693  1.00  0.00    +0.000 A 
ATOM     12 BR   UNL     1      -6.112   1.490   0.372  1.00  0.00    +0.000 Br
ATOM     13  C   UNL     1      -3.712   0.024  -0.089  1.00  0.00    +0.000 A 
BRANCH  10  14
ATOM     14  O   UNL     1      -4.099   2.632   2.486  1.00  0.00    +0.000 OA
ATOM     15  H   UNL     1      -5.025   2.761   2.213  1.00  0.00    +0.000 HD
ENDBRANCH  10  14
ENDBRANCH   6   7
BRANCH   1  16
ATOM     16  C   UNL     1       0.108  -0.067  -1.878  1.00  0.00    +0.000 C 
BRANCH  16  20
ATOM     17  C   UNL     1       3.834   0.333   0.298  1.00  0.00    +0.000 A 
ATOM     18  C   UNL     1       3.617  -0.763  -0.538  1.00  0.00    +0.000 A 
ATOM     19  C   UNL     1       2.419  -0.898  -1.244  1.00  0.00    +0.000 A 
ATOM     20  C   UNL     1       1.409   0.064  -1.117  1.00  0.00    +0.000 A 
ATOM     21  C   UNL     1       1.637   1.168  -0.285  1.00  0.00    +0.000 A 
ATOM     22  C   UNL     1       2.839   1.301   0.421  1.00  0.00    +0.000 A 
BRANCH  17  24
ATOM     23  C   UNL     1       5.320   1.442   1.785  1.00  0.00    +0.000 C 
ATOM     24  O   UNL     1       5.048   0.341   0.928  1.00  0.00    +0.000 OA
ENDBRANCH  17  24
ENDBRANCH  16  20
ENDBRANCH   1  16
TORSDOF 5
