REMARK  Name = /srv/my_project/app/compsite/backup/Dave/CORINA_stuff/newPDBs/SANC00111.pdb
AUTHORGENERATED BY OPEN BABEL 2.3.2
REMARK  7 active torsions:
REMARK  status: ('A' for Active; 'I' for Inactive)
REMARK    1  A    between atoms: C_3  and  O_5
REMARK    2  A    between atoms: C_11  and  C_12
REMARK    3  A    between atoms: C_12  and  O_13
REMARK    4  A    between atoms: O_13  and  C_14
REMARK    5  A    between atoms: C_14  and  C_16
REMARK    6  A    between atoms: C_16  and  C_17
REMARK    7  A    between atoms: C_18  and  C_19
REMARK                            x       y       z     vdW  Elec       q    Type
REMARK                         _______ _______ _______ _____ _____    ______ ____
ROOT
ATOM      1  C   UNL     1      -2.139   0.657  -0.451  1.00  0.00    +0.000 C 
ATOM      2  C   UNL     1      -2.965   1.237   0.708  1.00  0.00    +0.000 C 
ATOM      3  C   UNL     1      -4.290   0.487   0.619  1.00  0.00    +0.000 C 
ATOM      4  C   UNL     1      -3.888  -0.853   0.022  1.00  0.00    +0.000 C 
ATOM      5  N   UNL     1      -2.924  -0.472  -1.013  1.00  0.00    +0.000 NA
ATOM      6  C   UNL     1      -1.988  -1.552  -1.361  1.00  0.00    +0.000 C 
ATOM      7  C   UNL     1      -0.598  -0.936  -1.261  1.00  0.00    +0.000 C 
ATOM      8  C   UNL     1      -0.766   0.073  -0.133  1.00  0.00    +0.000 C 
ENDROOT
BRANCH   2   9
ATOM      9  O   UNL     1      -2.363   1.008   1.978  1.00  0.00    +0.000 OA
ATOM     10  H   UNL     1      -2.967   1.362   2.654  1.00  0.00    +0.000 HD
ENDBRANCH   2   9
BRANCH   8  11
ATOM     11  C   UNL     1       0.327   1.130  -0.056  1.00  0.00    +0.000 C 
BRANCH  11  12
ATOM     12  O   UNL     1       1.578   0.512   0.287  1.00  0.00    +0.000 OA
BRANCH  12  13
ATOM     13  C   UNL     1       2.480   0.368  -0.714  1.00  0.00    +0.000 C 
ATOM     14  O   UNL     1       2.322   0.681  -1.884  1.00  0.00    +0.000 OA
BRANCH  13  15
ATOM     15  C   UNL     1       3.689  -0.343  -0.219  1.00  0.00    +0.000 C 
ATOM     16  C   UNL     1       4.178  -1.417  -1.145  1.00  0.00    +0.000 C 
ATOM     17  C   UNL     1       4.310  -0.053   0.941  1.00  0.00    +0.000 C 
ATOM     18  C   UNL     1       3.982   1.040   1.909  1.00  0.00    +0.000 C 
ENDBRANCH  13  15
ENDBRANCH  12  13
ENDBRANCH  11  12
ENDBRANCH   8  11
TORSDOF 5
