REMARK  Name = SANCDB_00936_minRM1.pdb
AUTHORGENERATED BY OPEN BABEL 2.3.2
REMARK  11 active torsions:
REMARK  status: ('A' for Active; 'I' for Inactive)
REMARK    1  A    between atoms: C_1  and  C_2
REMARK    2  A    between atoms: C_6  and  C_20
REMARK    3  A    between atoms: C_6  and  C_21
REMARK    4  A    between atoms: C_10  and  C_19
REMARK    5  A    between atoms: C_11  and  C_12
REMARK    6  A    between atoms: C_12  and  C_13
REMARK    7  A    between atoms: C_13  and  C_14
REMARK    8  A    between atoms: C_14  and  C_18
REMARK    9  A    between atoms: C_15  and  C_16
REMARK   10  A    between atoms: C_16  and  O_17
REMARK   11  A    between atoms: C_21  and  O_22
REMARK                            x       y       z     vdW  Elec       q    Type
REMARK                         _______ _______ _______ _____ _____    ______ ____
ROOT
ATOM      1  C   UNL     1       0.692  -3.329  -1.435  1.00  0.00    +0.000 C 
ATOM      2  C   UNL     1      -0.243  -2.304  -0.841  1.00  0.00    +0.000 C 
ATOM      3  C   UNL     1      -1.454  -2.707  -0.419  1.00  0.00    +0.000 C 
ATOM      4  C   UNL     1      -2.528  -1.791   0.064  1.00  0.00    +0.000 C 
ATOM      5  C   UNL     1      -2.285  -0.328  -0.346  1.00  0.00    +0.000 C 
ATOM      6  C   UNL     1      -3.470   0.631   0.086  1.00  0.00    +0.000 C 
ATOM      7  C   UNL     1      -2.969   2.083   0.259  1.00  0.00    +0.000 C 
ATOM      8  C   UNL     1      -1.879   2.424  -0.739  1.00  0.00    +0.000 C 
ATOM      9  C   UNL     1      -0.611   1.609  -0.500  1.00  0.00    +0.000 C 
ATOM     10  C   UNL     1      -0.811   0.133  -0.024  1.00  0.00    +0.000 C 
ATOM     11  C   UNL     1       0.207  -0.828  -0.812  1.00  0.00    +0.000 C 
ATOM     12  C   UNL     1      -0.521   0.061   1.496  1.00  0.00    +0.000 C 
ATOM     13  C   UNL     1      -4.526   0.615  -1.058  1.00  0.00    +0.000 C 
ENDROOT
BRANCH  11  14
ATOM     14  C   UNL     1       1.706  -0.748  -0.371  1.00  0.00    +0.000 C 
BRANCH  14  15
ATOM     15  C   UNL     1       2.391   0.618  -0.484  1.00  0.00    +0.000 C 
BRANCH  15  16
ATOM     16  C   UNL     1       3.889   0.537  -0.234  1.00  0.00    +0.000 C 
ATOM     17  C   UNL     1       4.404   0.963   0.937  1.00  0.00    +0.000 C 
ATOM     18  C   UNL     1       4.706  -0.002  -1.378  1.00  0.00    +0.000 C 
BRANCH  17  19
ATOM     19  C   UNL     1       5.830   0.950   1.379  1.00  0.00    +0.000 C 
BRANCH  19  20
ATOM     20  O   UNL     1       5.863   0.435   2.702  1.00  0.00    +0.000 OA
ATOM     21  H   UNL     1       6.798   0.401   2.964  1.00  0.00    +0.000 HD
ENDBRANCH  19  20
ENDBRANCH  17  19
ENDBRANCH  15  16
ENDBRANCH  14  15
ENDBRANCH  11  14
BRANCH   6  22
ATOM     22  C   UNL     1      -4.255   0.213   1.360  1.00  0.00    +0.000 C 
BRANCH  22  23
ATOM     23  O   UNL     1      -3.431   0.139   2.509  1.00  0.00    +0.000 OA
ATOM     24  H   UNL     1      -3.998  -0.118   3.256  1.00  0.00    +0.000 HD
ENDBRANCH  22  23
ENDBRANCH   6  22
TORSDOF 7
