REMARK  Name = /srv/my_project/app/compsite/backup/Dave/CORINA_stuff/newPDBs/SANC00534.pdb
AUTHORGENERATED BY OPEN BABEL 2.3.2
REMARK  7 active torsions:
REMARK  status: ('A' for Active; 'I' for Inactive)
REMARK    1  A    between atoms: C_1  and  C_2
REMARK    2  A    between atoms: C_5  and  C_6
REMARK    3  A    between atoms: C_6  and  C_7
REMARK    4  A    between atoms: C_6  and  C_8
REMARK    5  A    between atoms: C_9  and  O_11
REMARK    6  A    between atoms: C_13  and  C_14
REMARK    7  A    between atoms: C_20  and  C_21
REMARK                            x       y       z     vdW  Elec       q    Type
REMARK                         _______ _______ _______ _____ _____    ______ ____
ROOT
ATOM      1  C   UNL     1       1.049   3.629   0.789  1.00  0.00    +0.000 C 
ATOM      2  C   UNL     1       0.057   2.709   0.121  1.00  0.00    +0.000 C 
ATOM      3  C   UNL     1      -1.132   2.504   0.724  1.00  0.00    +0.000 C 
ATOM      4  C   UNL     1      -2.287   1.789   0.227  1.00  0.00    +0.000 C 
ATOM      5  C   UNL     1      -2.512   0.455   0.224  1.00  0.00    +0.000 C 
ATOM      6  C   UNL     1      -1.477  -0.546   0.723  1.00  0.00    +0.000 C 
ATOM      7  C   UNL     1      -1.121  -1.630  -0.301  1.00  0.00    +0.000 C 
ATOM      8  C   UNL     1       0.184  -2.374  -0.098  1.00  0.00    +0.000 C 
ATOM      9  C   UNL     1       0.563  -3.270  -1.249  1.00  0.00    +0.000 C 
ATOM     10  O   UNL     1       0.360  -3.031   1.165  1.00  0.00    +0.000 OA
ATOM     11  C   UNL     1       1.219  -1.906   0.930  1.00  0.00    +0.000 C 
ATOM     12  C   UNL     1       2.677  -2.168   0.708  1.00  0.00    +0.000 C 
ATOM     13  C   UNL     1       3.548  -0.929   0.988  1.00  0.00    +0.000 C 
ATOM     14  C   UNL     1       3.288   0.377   0.232  1.00  0.00    +0.000 C 
ATOM     15  C   UNL     1       4.218   1.480   0.679  1.00  0.00    +0.000 C 
ATOM     16  C   UNL     1       2.332   0.536  -0.708  1.00  0.00    +0.000 C 
ATOM     17  C   UNL     1       1.925   1.779  -1.457  1.00  0.00    +0.000 C 
ATOM     18  C   UNL     1       0.444   2.176  -1.249  1.00  0.00    +0.000 C 
ENDROOT
BRANCH   5  19
ATOM     19  C   UNL     1      -3.887  -0.025  -0.267  1.00  0.00    +0.000 C 
ATOM     20  C   UNL     1      -3.863  -0.498  -1.724  1.00  0.00    +0.000 C 
ATOM     21  C   UNL     1      -4.573  -1.058   0.629  1.00  0.00    +0.000 C 
ENDBRANCH   5  19
BRANCH   6  22
ATOM     22  O   UNL     1      -1.960  -1.149   1.922  1.00  0.00    +0.000 OA
ATOM     23  H   UNL     1      -1.338  -1.868   2.141  1.00  0.00    +0.000 HD
ENDBRANCH   6  22
TORSDOF 2
