REMARK  Name = SANCDB_00867_minRM1.pdb
AUTHORGENERATED BY OPEN BABEL 2.3.2
REMARK  15 active torsions:
REMARK  status: ('A' for Active; 'I' for Inactive)
REMARK    1  A    between atoms: C_3  and  O_43
REMARK    2  A    between atoms: C_6  and  C_7
REMARK    3  A    between atoms: C_8  and  C_9
REMARK    4  A    between atoms: C_9  and  O_11
REMARK    5  A    between atoms: O_11  and  C_12
REMARK    6  A    between atoms: C_12  and  C_13
REMARK    7  A    between atoms: C_14  and  O_42
REMARK    8  A    between atoms: C_15  and  O_41
REMARK    9  A    between atoms: C_16  and  O_40
REMARK   10  A    between atoms: C_17  and  O_19
REMARK   11  A    between atoms: O_19  and  C_20
REMARK   12  A    between atoms: C_21  and  C_33
REMARK   13  A    between atoms: C_25  and  O_32
REMARK   14  A    between atoms: C_27  and  O_31
REMARK   15  A    between atoms: C_36  and  O_39
REMARK                            x       y       z     vdW  Elec       q    Type
REMARK                         _______ _______ _______ _____ _____    ______ ____
ROOT
ATOM      1  C   UNL     1       1.195  -0.502  -0.639  1.00  0.00    +0.000 C 
ATOM      2  C   UNL     1       1.213  -0.810   0.868  1.00  0.00    +0.000 C 
ATOM      3  C   UNL     1       0.040  -0.099   1.543  1.00  0.00    +0.000 C 
ATOM      4  C   UNL     1      -1.291  -0.411   0.860  1.00  0.00    +0.000 C 
ATOM      5  C   UNL     1      -1.176  -0.128  -0.657  1.00  0.00    +0.000 C 
ATOM      6  O   UNL     1      -0.067  -0.871  -1.199  1.00  0.00    +0.000 OA
ENDROOT
BRANCH   4   7
ATOM      7  O   UNL     1      -2.305   0.385   1.500  1.00  0.00    +0.000 OA
ATOM      8  H   UNL     1      -2.171   0.233   2.458  1.00  0.00    +0.000 HD
ENDBRANCH   4   7
BRANCH   3   9
ATOM      9  O   UNL     1      -0.040  -0.483   2.927  1.00  0.00    +0.000 OA
ATOM     10  H   UNL     1       0.875  -0.395   3.265  1.00  0.00    +0.000 HD
ENDBRANCH   3   9
BRANCH   2  11
ATOM     11  O   UNL     1       2.409  -0.368   1.520  1.00  0.00    +0.000 OA
ATOM     12  H   UNL     1       3.163  -0.708   1.001  1.00  0.00    +0.000 HD
ENDBRANCH   2  11
BRANCH   1  13
ATOM     13  C   UNL     1       2.283  -1.279  -1.394  1.00  0.00    +0.000 C 
BRANCH  13  14
ATOM     14  O   UNL     1       3.583  -0.898  -0.919  1.00  0.00    +0.000 OA
BRANCH  14  15
ATOM     15  C   UNL     1       4.607  -1.508  -1.567  1.00  0.00    +0.000 C 
ATOM     16  O   UNL     1       4.501  -2.355  -2.440  1.00  0.00    +0.000 OA
BRANCH  15  18
ATOM     17  C   UNL     1       6.098  -0.057  -0.186  1.00  0.00    +0.000 C 
ATOM     18  C   UNL     1       5.921  -1.047  -1.074  1.00  0.00    +0.000 C 
BRANCH  17  24
ATOM     19  C   UNL     1       7.608   1.758   0.544  1.00  0.00    +0.000 A 
ATOM     20  C   UNL     1       8.838   2.225   1.014  1.00  0.00    +0.000 A 
ATOM     21  C   UNL     1       9.877   1.330   1.230  1.00  0.00    +0.000 A 
ATOM     22  C   UNL     1       9.707  -0.028   0.989  1.00  0.00    +0.000 A 
ATOM     23  C   UNL     1       8.474  -0.494   0.518  1.00  0.00    +0.000 A 
ATOM     24  C   UNL     1       7.417   0.395   0.278  1.00  0.00    +0.000 A 
BRANCH  21  25
ATOM     25  O   UNL     1      11.060   1.828   1.689  1.00  0.00    +0.000 OA
ATOM     26  H   UNL     1      11.689   1.095   1.788  1.00  0.00    +0.000 HD
ENDBRANCH  21  25
ENDBRANCH  17  24
ENDBRANCH  15  18
ENDBRANCH  14  15
ENDBRANCH  13  14
ENDBRANCH   1  13
BRANCH   5  27
ATOM     27  O   UNL     1      -2.344  -0.577  -1.360  1.00  0.00    +0.000 OA
BRANCH  27  28
ATOM     28  C   UNL     1      -3.474   0.205  -1.179  1.00  0.00    +0.000 A 
ATOM     29  C   UNL     1      -4.631  -0.323  -0.738  1.00  0.00    +0.000 A 
ATOM     30  O   UNL     1      -5.793   0.394  -0.524  1.00  0.00    +0.000 OA
ATOM     31  C   UNL     1      -5.766   1.754  -0.691  1.00  0.00    +0.000 A 
ATOM     32  C   UNL     1      -6.941   2.431  -0.352  1.00  0.00    +0.000 A 
ATOM     33  C   UNL     1      -6.993   3.812  -0.488  1.00  0.00    +0.000 A 
ATOM     34  C   UNL     1      -5.894   4.522  -0.956  1.00  0.00    +0.000 A 
ATOM     35  C   UNL     1      -4.723   3.840  -1.296  1.00  0.00    +0.000 A 
ATOM     36  C   UNL     1      -4.652   2.445  -1.172  1.00  0.00    +0.000 A 
ATOM     37  C   UNL     1      -3.454   1.655  -1.539  1.00  0.00    +0.000 A 
ATOM     38  O   UNL     1      -2.494   2.138  -2.128  1.00  0.00    +0.000 OA
BRANCH  29  39
ATOM     39  C   UNL     1      -4.767  -1.750  -0.387  1.00  0.00    +0.000 A 
ATOM     40  C   UNL     1      -5.213  -2.113   0.893  1.00  0.00    +0.000 A 
ATOM     41  C   UNL     1      -5.354  -3.458   1.240  1.00  0.00    +0.000 A 
ATOM     42  C   UNL     1      -5.054  -4.444   0.308  1.00  0.00    +0.000 A 
ATOM     43  C   UNL     1      -4.615  -4.109  -0.968  1.00  0.00    +0.000 A 
ATOM     44  C   UNL     1      -4.475  -2.762  -1.314  1.00  0.00    +0.000 A 
BRANCH  42  45
ATOM     45  O   UNL     1      -5.204  -5.744   0.689  1.00  0.00    +0.000 OA
ATOM     46  H   UNL     1      -4.955  -6.315  -0.057  1.00  0.00    +0.000 HD
ENDBRANCH  42  45
ENDBRANCH  29  39
BRANCH  35  47
ATOM     47  O   UNL     1      -3.651   4.563  -1.736  1.00  0.00    +0.000 OA
ATOM     48  H   UNL     1      -3.890   5.500  -1.819  1.00  0.00    +0.000 HD
ENDBRANCH  35  47
BRANCH  33  49
ATOM     49  O   UNL     1      -8.114   4.517  -0.169  1.00  0.00    +0.000 OA
ATOM     50  H   UNL     1      -8.801   3.902   0.140  1.00  0.00    +0.000 HD
ENDBRANCH  33  49
ENDBRANCH  27  28
ENDBRANCH   5  27
TORSDOF 15
