REMARK  Name = SANCDB01127.pdb
REMARK  7 active torsions:
REMARK  status: ('A' for Active; 'I' for Inactive)
REMARK    1  A    between atoms: C_1  and  O_2
REMARK    2  A    between atoms: O_2  and  C_3
REMARK    3  A    between atoms: C_4  and  O_23
REMARK    4  A    between atoms: C_5  and  O_22
REMARK    5  A    between atoms: C_10  and  C_14
REMARK    6  A    between atoms: C_16  and  O_21
REMARK    7  A    between atoms: C_17  and  O_20
REMARK                            x       y       z     vdW  Elec       q    Type
REMARK                         _______ _______ _______ _____ _____    ______ ____
ROOT
ATOM      1  C   UNL     1      -3.615   0.100   0.578  1.00  0.00    +0.000 A 
ATOM      2  C   UNL     1      -3.925  -1.137  -0.010  1.00  0.00    +0.000 A 
ATOM      3  C   UNL     1      -2.929  -1.959  -0.540  1.00  0.00    +0.000 A 
ATOM      4  C   UNL     1      -1.600  -1.536  -0.480  1.00  0.00    +0.000 A 
ATOM      5  C   UNL     1      -1.281  -0.309   0.103  1.00  0.00    +0.000 A 
ATOM      6  C   UNL     1      -2.283   0.511   0.633  1.00  0.00    +0.000 A 
ATOM      7  O   UNL     1       0.007   0.161   0.194  1.00  0.00    +0.000 OA
ATOM      8  C   UNL     1       1.035  -0.619  -0.312  1.00  0.00    +0.000 A 
ATOM      9  C   UNL     1       0.857  -1.808  -0.904  1.00  0.00    +0.000 A 
ATOM     10  C   UNL     1      -0.504  -2.351  -1.020  1.00  0.00    +0.000 A 
ATOM     11  O   UNL     1      -0.714  -3.439  -1.542  1.00  0.00    +0.000 OA
ENDROOT
BRANCH   8  12
ATOM     12  C   UNL     1       2.375  -0.016  -0.171  1.00  0.00    +0.000 A 
ATOM     13  C   UNL     1       2.554   1.352  -0.427  1.00  0.00    +0.000 A 
ATOM     14  C   UNL     1       3.811   1.923  -0.284  1.00  0.00    +0.000 A 
ATOM     15  C   UNL     1       4.903   1.160   0.119  1.00  0.00    +0.000 A 
ATOM     16  C   UNL     1       4.749  -0.193   0.388  1.00  0.00    +0.000 A 
ATOM     17  C   UNL     1       3.484  -0.777   0.245  1.00  0.00    +0.000 A 
BRANCH  15  18
ATOM     18  O   UNL     1       6.110   1.790   0.240  1.00  0.00    +0.000 OA
ATOM     19  H   UNL     1       6.769   1.134   0.524  1.00  0.00    +0.000 HD
ENDBRANCH  15  18
BRANCH  14  20
ATOM     20  O   UNL     1       3.970   3.255  -0.543  1.00  0.00    +0.000 OA
ATOM     21  H   UNL     1       4.919   3.426  -0.379  1.00  0.00    +0.000 HD
ENDBRANCH  14  20
ENDBRANCH   8  12
BRANCH   1  23
ATOM     22  C   UNL     1      -4.425   2.066   1.650  1.00  0.00    +0.000 C 
ATOM     23  O   UNL     1      -4.694   0.800   1.055  1.00  0.00    +0.000 OA
ENDBRANCH   1  23
BRANCH   3  24
ATOM     24  O   UNL     1      -3.293  -3.155  -1.102  1.00  0.00    +0.000 OA
ATOM     25  H   UNL     1      -2.486  -3.609  -1.428  1.00  0.00    +0.000 HD
ENDBRANCH   3  24
BRANCH   2  26
ATOM     26  O   UNL     1      -5.237  -1.538  -0.061  1.00  0.00    +0.000 OA
ATOM     27  H   UNL     1      -5.748  -0.822   0.357  1.00  0.00    +0.000 HD
ENDBRANCH   2  26
TORSDOF 6
