REMARK  Name = SANCDB_01011_minRM1.pdb
AUTHORGENERATED BY OPEN BABEL 2.3.2
REMARK  1 active torsions:
REMARK  status: ('A' for Active; 'I' for Inactive)
REMARK    1  A    between atoms: C_7  and  O_13
REMARK                            x       y       z     vdW  Elec       q    Type
REMARK                         _______ _______ _______ _____ _____    ______ ____
ROOT
ATOM      1  C   UNL     1      -2.470   0.575  -0.188  1.00  0.00    +0.000 A 
ATOM      2  C   UNL     1      -2.522  -0.797   0.041  1.00  0.00    +0.000 A 
ATOM      3  C   UNL     1      -1.340  -1.516   0.192  1.00  0.00    +0.000 A 
ATOM      4  C   UNL     1      -0.105  -0.855   0.124  1.00  0.00    +0.000 A 
ATOM      5  C   UNL     1      -0.032   0.534  -0.070  1.00  0.00    +0.000 A 
ATOM      6  C   UNL     1      -1.236   1.234  -0.249  1.00  0.00    +0.000 A 
ATOM      7  C   UNL     1       1.282   1.205  -0.106  1.00  0.00    +0.000 C 
ATOM      8  C   UNL     1       2.434   0.529  -0.108  1.00  0.00    +0.000 C 
ATOM      9  C   UNL     1       2.458  -0.940  -0.017  1.00  0.00    +0.000 C 
ATOM     10  O   UNL     1       3.506  -1.560  -0.125  1.00  0.00    +0.000 OA
ATOM     11  C   UNL     1       1.136  -1.649   0.237  1.00  0.00    +0.000 C 
ATOM     12  O   UNL     1       1.110  -2.837   0.522  1.00  0.00    +0.000 OA
ENDROOT
BRANCH   7  13
ATOM     13  O   UNL     1       1.322   2.585  -0.124  1.00  0.00    +0.000 OA
ATOM     14  H   UNL     1       0.565   2.933   0.377  1.00  0.00    +0.000 HD
ENDBRANCH   7  13
TORSDOF 1
