REMARK  Name = SANCDB_00840_minRM1.pdb
AUTHORGENERATED BY OPEN BABEL 2.3.2
REMARK  16 active torsions:
REMARK  status: ('A' for Active; 'I' for Inactive)
REMARK    1  A    between atoms: C_3  and  O_43
REMARK    2  A    between atoms: C_6  and  C_7
REMARK    3  A    between atoms: C_8  and  O_20
REMARK    4  A    between atoms: C_12  and  O_19
REMARK    5  A    between atoms: C_14  and  O_18
REMARK    6  A    between atoms: O_20  and  C_21
REMARK    7  A    between atoms: C_22  and  O_42
REMARK    8  A    between atoms: C_23  and  O_41
REMARK    9  A    between atoms: C_24  and  O_40
REMARK   10  A    between atoms: C_25  and  C_27
REMARK   11  A    between atoms: C_27  and  O_28
REMARK   12  A    between atoms: O_28  and  C_29
REMARK   13  A    between atoms: C_29  and  C_31
REMARK   14  A    between atoms: C_33  and  O_39
REMARK   15  A    between atoms: C_34  and  O_38
REMARK   16  A    between atoms: C_35  and  O_37
REMARK                            x       y       z     vdW  Elec       q    Type
REMARK                         _______ _______ _______ _____ _____    ______ ____
ROOT
ATOM      1  C   UNL     1      -1.047  -0.230  -1.395  1.00  0.00    +0.000 C 
ATOM      2  C   UNL     1      -0.458   0.816  -2.372  1.00  0.00    +0.000 C 
ATOM      3  C   UNL     1       1.043   1.040  -2.111  1.00  0.00    +0.000 C 
ATOM      4  C   UNL     1       1.780  -0.308  -2.127  1.00  0.00    +0.000 C 
ATOM      5  C   UNL     1       1.121  -1.330  -1.177  1.00  0.00    +0.000 C 
ATOM      6  O   UNL     1      -0.289  -1.455  -1.427  1.00  0.00    +0.000 OA
ENDROOT
BRANCH   2   7
ATOM      7  O   UNL     1      -0.675   0.393  -3.732  1.00  0.00    +0.000 OA
ATOM      8  H   UNL     1       0.019  -0.276  -3.929  1.00  0.00    +0.000 HD
ENDBRANCH   2   7
BRANCH   3   9
ATOM      9  O   UNL     1       1.313   1.714  -0.883  1.00  0.00    +0.000 OA
ATOM     10  H   UNL     1       0.595   2.368  -0.715  1.00  0.00    +0.000 HD
ENDBRANCH   3   9
BRANCH   4  11
ATOM     11  O   UNL     1       1.726  -0.826  -3.474  1.00  0.00    +0.000 OA
ATOM     12  H   UNL     1       2.228  -1.663  -3.479  1.00  0.00    +0.000 HD
ENDBRANCH   4  11
BRANCH   5  13
ATOM     13  C   UNL     1       1.451  -1.124   0.312  1.00  0.00    +0.000 C 
BRANCH  13  14
ATOM     14  O   UNL     1       2.868  -1.053   0.553  1.00  0.00    +0.000 OA
BRANCH  14  15
ATOM     15  C   UNL     1       3.534  -2.231   0.591  1.00  0.00    +0.000 C 
ATOM     16  O   UNL     1       3.048  -3.331   0.395  1.00  0.00    +0.000 OA
BRANCH  15  17
ATOM     17  C   UNL     1       4.974  -1.995   0.885  1.00  0.00    +0.000 A 
ATOM     18  C   UNL     1       5.823  -3.111   0.954  1.00  0.00    +0.000 A 
ATOM     19  C   UNL     1       7.173  -2.927   1.220  1.00  0.00    +0.000 A 
ATOM     20  C   UNL     1       7.684  -1.652   1.419  1.00  0.00    +0.000 A 
ATOM     21  C   UNL     1       6.850  -0.543   1.353  1.00  0.00    +0.000 A 
ATOM     22  C   UNL     1       5.493  -0.701   1.087  1.00  0.00    +0.000 A 
BRANCH  19  23
ATOM     23  O   UNL     1       7.997  -4.012   1.285  1.00  0.00    +0.000 OA
ATOM     24  H   UNL     1       8.882  -3.642   1.483  1.00  0.00    +0.000 HD
ENDBRANCH  19  23
BRANCH  20  25
ATOM     25  O   UNL     1       9.020  -1.504   1.679  1.00  0.00    +0.000 OA
ATOM     26  H   UNL     1       9.141  -0.537   1.781  1.00  0.00    +0.000 HD
ENDBRANCH  20  25
BRANCH  21  27
ATOM     27  O   UNL     1       7.410   0.688   1.556  1.00  0.00    +0.000 OA
ATOM     28  H   UNL     1       6.712   1.363   1.481  1.00  0.00    +0.000 HD
ENDBRANCH  21  27
ENDBRANCH  15  17
ENDBRANCH  14  15
ENDBRANCH  13  14
ENDBRANCH   5  13
BRANCH   1  29
ATOM     29  O   UNL     1      -1.152   0.238  -0.045  1.00  0.00    +0.000 OA
BRANCH  29  31
ATOM     30  C   UNL     1      -3.465   0.538   0.551  1.00  0.00    +0.000 A 
ATOM     31  C   UNL     1      -2.265   1.026   0.185  1.00  0.00    +0.000 A 
ATOM     32  C   UNL     1      -2.078   2.505   0.141  1.00  0.00    +0.000 A 
ATOM     33  O   UNL     1      -0.976   2.966  -0.142  1.00  0.00    +0.000 OA
ATOM     34  C   UNL     1      -3.265   3.337   0.433  1.00  0.00    +0.000 A 
ATOM     35  C   UNL     1      -3.248   4.738   0.399  1.00  0.00    +0.000 A 
ATOM     36  C   UNL     1      -4.405   5.466   0.685  1.00  0.00    +0.000 A 
ATOM     37  C   UNL     1      -5.579   4.795   1.005  1.00  0.00    +0.000 A 
ATOM     38  C   UNL     1      -5.617   3.407   1.042  1.00  0.00    +0.000 A 
ATOM     39  C   UNL     1      -4.457   2.683   0.754  1.00  0.00    +0.000 A 
ATOM     40  O   UNL     1      -4.577   1.318   0.809  1.00  0.00    +0.000 OA
BRANCH  30  46
ATOM     41  C   UNL     1      -4.831  -1.482   0.033  1.00  0.00    +0.000 A 
ATOM     42  C   UNL     1      -5.109  -2.846   0.163  1.00  0.00    +0.000 A 
ATOM     43  C   UNL     1      -4.293  -3.636   0.965  1.00  0.00    +0.000 A 
ATOM     44  C   UNL     1      -3.209  -3.085   1.636  1.00  0.00    +0.000 A 
ATOM     45  C   UNL     1      -2.931  -1.723   1.505  1.00  0.00    +0.000 A 
ATOM     46  C   UNL     1      -3.735  -0.907   0.695  1.00  0.00    +0.000 A 
BRANCH  43  47
ATOM     47  O   UNL     1      -4.526  -4.969   1.122  1.00  0.00    +0.000 OA
ATOM     48  H   UNL     1      -5.274  -5.224   0.557  1.00  0.00    +0.000 HD
ENDBRANCH  43  47
ENDBRANCH  30  46
BRANCH  35  49
ATOM     49  O   UNL     1      -2.107   5.418   0.082  1.00  0.00    +0.000 OA
ATOM     50  H   UNL     1      -2.266   6.376   0.115  1.00  0.00    +0.000 HD
ENDBRANCH  35  49
BRANCH  37  51
ATOM     51  O   UNL     1      -6.682   5.546   1.279  1.00  0.00    +0.000 OA
ATOM     52  H   UNL     1      -7.426   4.958   1.496  1.00  0.00    +0.000 HD
ENDBRANCH  37  51
ENDBRANCH  29  31
ENDBRANCH   1  29
TORSDOF 16
