REMARK  Name = /srv/my_project/app/compsite/backup/Dave/CORINA_stuff/newPDBs/SANC00477.pdb
AUTHORGENERATED BY OPEN BABEL 2.3.2
REMARK  9 active torsions:
REMARK  status: ('A' for Active; 'I' for Inactive)
REMARK    1  A    between atoms: C_1  and  O_2
REMARK    2  A    between atoms: O_2  and  C_3
REMARK    3  A    between atoms: C_5  and  O_6
REMARK    4  A    between atoms: C_10  and  O_11
REMARK    5  A    between atoms: C_10  and  C_12
REMARK    6  A    between atoms: C_12  and  C_13
REMARK    7  A    between atoms: C_16  and  O_17
REMARK    8  A    between atoms: C_18  and  O_19
REMARK    9  A    between atoms: O_19  and  C_20
REMARK                            x       y       z     vdW  Elec       q    Type
REMARK                         _______ _______ _______ _____ _____    ______ ____
ROOT
ATOM      1  C   UNL     1       4.441  -0.021   1.150  1.00  0.00    +0.000 A 
ATOM      2  C   UNL     1       4.511  -1.160   0.346  1.00  0.00    +0.000 A 
ATOM      3  C   UNL     1       3.423  -1.517  -0.452  1.00  0.00    +0.000 A 
ATOM      4  C   UNL     1       2.264  -0.738  -0.456  1.00  0.00    +0.000 A 
ATOM      5  C   UNL     1       1.078  -1.122  -1.245  1.00  0.00    +0.000 C 
ATOM      6  O   UNL     1       1.119  -2.098  -1.997  1.00  0.00    +0.000 OA
ATOM      7  C   UNL     1      -0.184  -0.289  -1.052  1.00  0.00    +0.000 C 
ATOM      8  C   UNL     1       0.283   1.142  -0.789  1.00  0.00    +0.000 C 
ATOM      9  O   UNL     1       1.106   1.238   0.379  1.00  0.00    +0.000 OA
ATOM     10  C   UNL     1       2.200   0.414   0.327  1.00  0.00    +0.000 A 
ATOM     11  C   UNL     1       3.279   0.760   1.139  1.00  0.00    +0.000 A 
ENDROOT
BRANCH   1  13
ATOM     12  C   UNL     1       6.630  -0.319   2.030  1.00  0.00    +0.000 C 
ATOM     13  O   UNL     1       5.425   0.436   1.983  1.00  0.00    +0.000 OA
ENDBRANCH   1  13
BRANCH   3  14
ATOM     14  O   UNL     1       3.561  -2.655  -1.201  1.00  0.00    +0.000 OA
ATOM     15  H   UNL     1       2.742  -2.782  -1.730  1.00  0.00    +0.000 HD
ENDBRANCH   3  14
BRANCH   7  16
ATOM     16  O   UNL     1      -0.928  -0.341  -2.279  1.00  0.00    +0.000 OA
ATOM     17  H   UNL     1      -0.833  -1.253  -2.621  1.00  0.00    +0.000 HD
ENDBRANCH   7  16
BRANCH   7  18
ATOM     18  C   UNL     1      -1.002  -0.927   0.092  1.00  0.00    +0.000 C 
BRANCH  18  19
ATOM     19  C   UNL     1      -2.174  -0.100   0.576  1.00  0.00    +0.000 A 
ATOM     20  C   UNL     1      -2.109   0.554   1.815  1.00  0.00    +0.000 A 
ATOM     21  C   UNL     1      -3.182   1.323   2.264  1.00  0.00    +0.000 A 
ATOM     22  C   UNL     1      -4.314   1.438   1.470  1.00  0.00    +0.000 A 
ATOM     23  C   UNL     1      -4.407   0.802   0.228  1.00  0.00    +0.000 A 
ATOM     24  C   UNL     1      -3.332   0.029  -0.213  1.00  0.00    +0.000 A 
BRANCH  22  25
ATOM     25  O   UNL     1      -5.353   2.201   1.932  1.00  0.00    +0.000 OA
ATOM     26  H   UNL     1      -6.032   2.147   1.232  1.00  0.00    +0.000 HD
ENDBRANCH  22  25
BRANCH  23  27
ATOM     27  O   UNL     1      -5.584   1.013  -0.444  1.00  0.00    +0.000 OA
ATOM     28  C   UNL     1      -5.686   0.438  -1.742  1.00  0.00    +0.000 C 
ENDBRANCH  23  27
ENDBRANCH  18  19
ENDBRANCH   7  18
TORSDOF 7
