REMARK  Name = /srv/my_project/app/compsite/backup/Dave/CORINA_stuff/newPDBs/SANC00486.pdb
AUTHORGENERATED BY OPEN BABEL 2.3.2
REMARK  18 active torsions:
REMARK  status: ('A' for Active; 'I' for Inactive)
REMARK    1  A    between atoms: C_1  and  C_2
REMARK    2  A    between atoms: C_5  and  O_13
REMARK    3  A    between atoms: C_8  and  C_10
REMARK    4  A    between atoms: C_8  and  C_11
REMARK    5  A    between atoms: C_11  and  O_12
REMARK    6  A    between atoms: C_17  and  O_82
REMARK    7  A    between atoms: C_18  and  C_81
REMARK    8  A    between atoms: C_19  and  O_80
REMARK    9  A    between atoms: C_32  and  C_79
REMARK   10  A    between atoms: C_40  and  C_78
REMARK   11  A    between atoms: C_50  and  O_74
REMARK   12  A    between atoms: C_52  and  C_73
REMARK   13  A    between atoms: C_57  and  O_72
REMARK   14  A    between atoms: C_58  and  C_71
REMARK   15  A    between atoms: C_62  and  O_70
REMARK   16  A    between atoms: C_65  and  C_67
REMARK   17  A    between atoms: C_65  and  C_68
REMARK   18  A    between atoms: C_68  and  O_69
REMARK                            x       y       z     vdW  Elec       q    Type
REMARK                         _______ _______ _______ _____ _____    ______ ____
ROOT
ATOM      1  C   UNL     1      11.084  -3.155  -0.051  1.00  0.00    +0.000 C 
ATOM      2  C   UNL     1      10.452  -1.817  -0.457  1.00  0.00    +0.000 C 
ATOM      3  C   UNL     1      11.345  -0.585  -0.169  1.00  0.00    +0.000 C 
ATOM      4  C   UNL     1      12.816  -0.818   0.219  1.00  0.00    +0.000 C 
ATOM      5  C   UNL     1      13.434   0.530  -0.089  1.00  0.00    +0.000 C 
ATOM      6  C   UNL     1      12.645   1.005  -1.312  1.00  0.00    +0.000 C 
ATOM      7  O   UNL     1      11.423   0.231  -1.352  1.00  0.00    +0.000 OA
ATOM      8  C   UNL     1      12.277   2.483  -1.200  1.00  0.00    +0.000 C 
ATOM      9  O   UNL     1      10.730   0.190   0.890  1.00  0.00    +0.000 OA
ATOM     10  C   UNL     1       9.642  -0.561   1.401  1.00  0.00    +0.000 C 
ATOM     11  C   UNL     1       9.155  -1.517   0.307  1.00  0.00    +0.000 C 
ATOM     12  C   UNL     1       7.989  -0.723  -0.420  1.00  0.00    +0.000 C 
ATOM     13  C   UNL     1       6.845  -1.658  -0.897  1.00  0.00    +0.000 C 
ATOM     14  C   UNL     1       5.515  -0.916  -1.104  1.00  0.00    +0.000 C 
ATOM     15  C   UNL     1       5.073  -0.152   0.166  1.00  0.00    +0.000 C 
ATOM     16  C   UNL     1       6.167   0.869   0.598  1.00  0.00    +0.000 C 
ATOM     17  C   UNL     1       7.510   0.183   0.714  1.00  0.00    +0.000 C 
ATOM     18  C   UNL     1       8.452   0.301   1.665  1.00  0.00    +0.000 C 
ATOM     19  C   UNL     1       5.759   1.606   1.884  1.00  0.00    +0.000 C 
ATOM     20  C   UNL     1       4.379   2.245   1.785  1.00  0.00    +0.000 C 
ATOM     21  C   UNL     1       3.316   1.216   1.389  1.00  0.00    +0.000 C 
ATOM     22  C   UNL     1       3.646   0.507   0.040  1.00  0.00    +0.000 C 
ATOM     23  C   UNL     1       2.571  -0.599  -0.174  1.00  0.00    +0.000 C 
ATOM     24  C   UNL     1       1.152  -0.171   0.091  1.00  0.00    +0.000 A 
ATOM     25  C   UNL     1       0.849   0.948   0.863  1.00  0.00    +0.000 A 
ATOM     26  C   UNL     1       1.920   1.858   1.392  1.00  0.00    +0.000 C 
ATOM     27  N   UNL     1      -0.433   1.304   1.128  1.00  0.00    +0.000 NA
ATOM     28  C   UNL     1      -1.406   0.512   0.613  1.00  0.00    +0.000 A 
ATOM     29  C   UNL     1      -2.824   0.888   0.955  1.00  0.00    +0.000 C 
ATOM     30  C   UNL     1      -3.911   0.250   0.044  1.00  0.00    +0.000 C 
ATOM     31  C   UNL     1      -3.554  -1.262  -0.114  1.00  0.00    +0.000 C 
ATOM     32  C   UNL     1      -4.628  -2.046  -0.877  1.00  0.00    +0.000 C 
ATOM     33  C   UNL     1      -5.989  -1.919  -0.201  1.00  0.00    +0.000 C 
ATOM     34  C   UNL     1      -6.414  -0.452  -0.026  1.00  0.00    +0.000 C 
ATOM     35  C   UNL     1      -5.321   0.350   0.740  1.00  0.00    +0.000 C 
ATOM     36  C   UNL     1      -5.778   1.801   1.039  1.00  0.00    +0.000 C 
ATOM     37  C   UNL     1      -7.168   1.859   1.704  1.00  0.00    +0.000 C 
ATOM     38  C   UNL     1      -8.272   1.125   0.880  1.00  0.00    +0.000 C 
ATOM     39  C   UNL     1      -7.733  -0.280   0.685  1.00  0.00    +0.000 C 
ATOM     40  C   UNL     1      -8.489  -1.195   1.302  1.00  0.00    +0.000 C 
ATOM     41  C   UNL     1      -9.669  -0.606   2.001  1.00  0.00    +0.000 C 
ATOM     42  C   UNL     1      -9.618   0.916   1.708  1.00  0.00    +0.000 C 
ATOM     43  C   UNL     1     -10.995   1.163   1.040  1.00  0.00    +0.000 C 
ATOM     44  C   UNL     1     -11.381  -0.221   0.501  1.00  0.00    +0.000 C 
ATOM     45  O   UNL     1     -10.846  -1.172   1.429  1.00  0.00    +0.000 OA
ATOM     46  C   UNL     1     -12.868  -0.505   0.224  1.00  0.00    +0.000 C 
ATOM     47  C   UNL     1     -12.773  -1.738  -0.651  1.00  0.00    +0.000 C 
ATOM     48  C   UNL     1     -11.534  -1.442  -1.497  1.00  0.00    +0.000 C 
ATOM     49  O   UNL     1     -10.763  -0.441  -0.785  1.00  0.00    +0.000 OA
ATOM     50  C   UNL     1     -10.657  -2.681  -1.678  1.00  0.00    +0.000 C 
ATOM     51  C   UNL     1     -12.033   1.721   2.026  1.00  0.00    +0.000 C 
ATOM     52  C   UNL     1      -8.505   1.859  -0.456  1.00  0.00    +0.000 C 
ATOM     53  C   UNL     1      -2.174  -1.476  -0.753  1.00  0.00    +0.000 C 
ATOM     54  C   UNL     1      -1.102  -0.618  -0.143  1.00  0.00    +0.000 A 
ATOM     55  N   UNL     1       0.180  -0.969  -0.415  1.00  0.00    +0.000 NA
ATOM     56  C   UNL     1      -3.908   0.991  -1.318  1.00  0.00    +0.000 C 
ATOM     57  C   UNL     1       3.589   1.486  -1.160  1.00  0.00    +0.000 C 
ATOM     58  C   UNL     1       8.445   0.200  -1.574  1.00  0.00    +0.000 C 
ENDROOT
BRANCH   4  59
ATOM     59  O   UNL     1      12.998  -1.160   1.588  1.00  0.00    +0.000 OA
ATOM     60  H   UNL     1      12.485  -0.506   2.100  1.00  0.00    +0.000 HD
ENDBRANCH   4  59
BRANCH  46  61
ATOM     61  O   UNL     1     -13.671  -0.733   1.371  1.00  0.00    +0.000 OA
ATOM     62  H   UNL     1     -14.491  -1.170   1.087  1.00  0.00    +0.000 HD
ENDBRANCH  46  61
BRANCH  42  63
ATOM     63  O   UNL     1      -9.540   1.636   2.951  1.00  0.00    +0.000 OA
ATOM     64  H   UNL     1      -9.265   2.549   2.727  1.00  0.00    +0.000 HD
ENDBRANCH  42  63
BRANCH  37  65
ATOM     65  O   UNL     1      -7.546   3.226   1.907  1.00  0.00    +0.000 OA
ATOM     66  H   UNL     1      -6.823   3.652   2.402  1.00  0.00    +0.000 HD
ENDBRANCH  37  65
BRANCH  13  67
ATOM     67  O   UNL     1       7.210  -2.295  -2.121  1.00  0.00    +0.000 OA
ATOM     68  H   UNL     1       6.561  -3.001  -2.288  1.00  0.00    +0.000 HD
ENDBRANCH  13  67
BRANCH  11  69
ATOM     69  O   UNL     1       8.641  -2.705   0.944  1.00  0.00    +0.000 OA
ATOM     70  H   UNL     1       8.008  -2.426   1.630  1.00  0.00    +0.000 HD
ENDBRANCH  11  69
BRANCH   6  71
ATOM     71  C   UNL     1      13.390   0.753  -2.635  1.00  0.00    +0.000 C 
BRANCH  71  72
ATOM     72  O   UNL     1      13.614  -0.641  -2.835  1.00  0.00    +0.000 OA
ATOM     73  H   UNL     1      12.726  -1.038  -2.921  1.00  0.00    +0.000 HD
ENDBRANCH  71  72
ENDBRANCH   6  71
BRANCH  48  74
ATOM     74  C   UNL     1     -11.910  -0.823  -2.857  1.00  0.00    +0.000 C 
BRANCH  74  75
ATOM     75  O   UNL     1     -10.741  -0.427  -3.574  1.00  0.00    +0.000 OA
ATOM     76  H   UNL     1     -10.146  -0.034  -2.906  1.00  0.00    +0.000 HD
ENDBRANCH  74  75
ENDBRANCH  48  74
TORSDOF 10
