REMARK  Name = /srv/my_project/app/compsite/backup/Dave/CORINA_stuff/newPDBs/SANC00377.pdb
AUTHORGENERATED BY OPEN BABEL 2.3.2
REMARK  4 active torsions:
REMARK  status: ('A' for Active; 'I' for Inactive)
REMARK    1  A    between atoms: C_12  and  O_13
REMARK    2  A    between atoms: C_14  and  O_15
REMARK    3  A    between atoms: O_15  and  C_16
REMARK    4  A    between atoms: N_21  and  C_22
REMARK                            x       y       z     vdW  Elec       q    Type
REMARK                         _______ _______ _______ _____ _____    ______ ____
ROOT
ATOM      1  C   UNL     1      -1.503  -0.942  -0.516  1.00  0.00    +0.000 C 
ATOM      2  C   UNL     1      -2.102   0.328   0.116  1.00  0.00    +0.000 C 
ATOM      3  C   UNL     1      -1.044   1.461  -0.127  1.00  0.00    +0.000 C 
ATOM      4  C   UNL     1      -1.151   2.478   0.991  1.00  0.00    +0.000 C 
ATOM      5  C   UNL     1      -1.438   3.776   0.811  1.00  0.00    +0.000 C 
ATOM      6  C   UNL     1      -1.665   4.325  -0.543  1.00  0.00    +0.000 C 
ATOM      7  O   UNL     1      -1.947   5.504  -0.714  1.00  0.00    +0.000 OA
ATOM      8  C   UNL     1      -1.517   3.396  -1.685  1.00  0.00    +0.000 C 
ATOM      9  C   UNL     1      -1.232   2.099  -1.490  1.00  0.00    +0.000 C 
ATOM     10  C   UNL     1       0.244   0.656  -0.075  1.00  0.00    +0.000 A 
ATOM     11  C   UNL     1       1.568   1.034   0.097  1.00  0.00    +0.000 A 
ATOM     12  C   UNL     1       2.577   0.047   0.162  1.00  0.00    +0.000 A 
ATOM     13  C   UNL     1       2.238  -1.316   0.047  1.00  0.00    +0.000 A 
ATOM     14  C   UNL     1       0.912  -1.701  -0.163  1.00  0.00    +0.000 A 
ATOM     15  C   UNL     1       0.458  -3.135  -0.208  1.00  0.00    +0.000 C 
ATOM     16  C   UNL     1      -1.020  -3.285  -0.656  1.00  0.00    +0.000 C 
ATOM     17  N   UNL     1      -1.965  -2.278  -0.112  1.00  0.00    +0.000 NA
ATOM     18  C   UNL     1      -2.156  -2.449   1.325  1.00  0.00    +0.000 C 
ATOM     19  C   UNL     1      -0.047  -0.703  -0.235  1.00  0.00    +0.000 A 
ENDROOT
BRANCH  11  20
ATOM     20  O   UNL     1       1.934   2.346   0.208  1.00  0.00    +0.000 OA
ATOM     21  H   UNL     1       1.192   2.910  -0.055  1.00  0.00    +0.000 HD
ENDBRANCH  11  20
BRANCH  12  22
ATOM     22  O   UNL     1       3.854   0.515   0.350  1.00  0.00    +0.000 OA
ATOM     23  C   UNL     1       4.906  -0.437   0.386  1.00  0.00    +0.000 C 
ENDBRANCH  12  22
TORSDOF 2
