REMARK  Name = SANCDB_00931_minRM1.pdb
AUTHORGENERATED BY OPEN BABEL 2.3.2
REMARK  8 active torsions:
REMARK  status: ('A' for Active; 'I' for Inactive)
REMARK    1  A    between atoms: C_1  and  C_2
REMARK    2  A    between atoms: C_3  and  O_23
REMARK    3  A    between atoms: C_7  and  C_22
REMARK    4  A    between atoms: C_8  and  C_9
REMARK    5  A    between atoms: C_9  and  C_10
REMARK    6  A    between atoms: C_10  and  C_11
REMARK    7  A    between atoms: C_19  and  C_20
REMARK    8  A    between atoms: C_19  and  C_21
REMARK                            x       y       z     vdW  Elec       q    Type
REMARK                         _______ _______ _______ _____ _____    ______ ____
ROOT
ATOM      1  C   UNL     1       1.903  -2.731   0.328  1.00  0.00    +0.000 C 
ATOM      2  C   UNL     1       0.704  -1.832   0.510  1.00  0.00    +0.000 C 
ATOM      3  C   UNL     1      -0.150  -2.045   1.528  1.00  0.00    +0.000 C 
ATOM      4  C   UNL     1      -1.455  -1.316   1.616  1.00  0.00    +0.000 C 
ATOM      5  O   UNL     1      -2.128  -1.498   2.630  1.00  0.00    +0.000 OA
ATOM      6  C   UNL     1      -1.887  -0.501   0.399  1.00  0.00    +0.000 C 
ATOM      7  C   UNL     1      -0.650   0.313  -0.121  1.00  0.00    +0.000 C 
ATOM      8  C   UNL     1       0.453  -0.753  -0.557  1.00  0.00    +0.000 C 
ATOM      9  C   UNL     1      -1.072   1.143  -1.362  1.00  0.00    +0.000 C 
ATOM     10  C   UNL     1      -2.341   1.960  -1.155  1.00  0.00    +0.000 C 
ATOM     11  C   UNL     1      -3.513   1.067  -0.766  1.00  0.00    +0.000 C 
ATOM     12  C   UNL     1      -3.261   0.249   0.526  1.00  0.00    +0.000 C 
ATOM     13  C   UNL     1      -3.409   1.188   1.742  1.00  0.00    +0.000 C 
ATOM     14  C   UNL     1      -4.406  -0.794   0.625  1.00  0.00    +0.000 C 
ATOM     15  C   UNL     1      -0.102   1.267   0.966  1.00  0.00    +0.000 C 
ENDROOT
BRANCH   3  16
ATOM     16  O   UNL     1       0.096  -2.980   2.516  1.00  0.00    +0.000 OA
ATOM     17  H   UNL     1      -0.671  -2.909   3.124  1.00  0.00    +0.000 HD
ENDBRANCH   3  16
BRANCH   8  18
ATOM     18  C   UNL     1       1.750  -0.164  -1.191  1.00  0.00    +0.000 C 
BRANCH  18  19
ATOM     19  C   UNL     1       2.733   0.568  -0.269  1.00  0.00    +0.000 C 
BRANCH  19  20
ATOM     20  C   UNL     1       4.106   0.636  -0.856  1.00  0.00    +0.000 A 
ATOM     21  C   UNL     1       4.565   1.527  -1.806  1.00  0.00    +0.000 A 
ATOM     22  O   UNL     1       5.867   1.289  -2.103  1.00  0.00    +0.000 OA
ATOM     23  C   UNL     1       6.259   0.239  -1.338  1.00  0.00    +0.000 A 
ATOM     24  C   UNL     1       5.218  -0.199  -0.554  1.00  0.00    +0.000 A 
ENDBRANCH  19  20
ENDBRANCH  18  19
ENDBRANCH   8  18
TORSDOF 4
