REMARK  Name = SANCDB_01110_minRM1.pdb
AUTHORGENERATED BY OPEN BABEL 2.3.2
REMARK  9 active torsions:
REMARK  status: ('A' for Active; 'I' for Inactive)
REMARK    1  A    between atoms: C_1  and  C_2
REMARK    2  A    between atoms: C_5  and  C_30
REMARK    3  A    between atoms: C_5  and  C_31
REMARK    4  A    between atoms: C_8  and  C_29
REMARK    5  A    between atoms: C_12  and  C_28
REMARK    6  A    between atoms: C_15  and  O_27
REMARK    7  A    between atoms: C_16  and  C_25
REMARK    8  A    between atoms: C_16  and  C_26
REMARK    9  A    between atoms: C_20  and  C_24
REMARK                            x       y       z     vdW  Elec       q    Type
REMARK                         _______ _______ _______ _____ _____    ______ ____
ROOT
ATOM      1  C   UNL     1      -3.270   2.212  -0.605  1.00  0.00    +0.000 C 
ATOM      2  C   UNL     1      -3.684   0.717  -0.560  1.00  0.00    +0.000 C 
ATOM      3  C   UNL     1      -5.236   0.739  -0.615  1.00  0.00    +0.000 C 
ATOM      4  C   UNL     1      -5.909  -0.595  -0.335  1.00  0.00    +0.000 C 
ATOM      5  C   UNL     1      -5.450  -1.207   0.993  1.00  0.00    +0.000 C 
ATOM      6  C   UNL     1      -3.911  -1.312   0.996  1.00  0.00    +0.000 C 
ATOM      7  C   UNL     1      -3.130   0.013   0.724  1.00  0.00    +0.000 C 
ATOM      8  C   UNL     1      -1.510  -0.178   0.713  1.00  0.00    +0.000 C 
ATOM      9  C   UNL     1      -0.898   0.895   1.650  1.00  0.00    +0.000 C 
ATOM     10  C   UNL     1       0.636   0.891   1.762  1.00  0.00    +0.000 C 
ATOM     11  C   UNL     1       1.391   0.265   0.564  1.00  0.00    +0.000 C 
ATOM     12  C   UNL     1       2.967   0.505   0.566  1.00  0.00    +0.000 C 
ATOM     13  C   UNL     1       3.547   0.003   1.934  1.00  0.00    +0.000 C 
ATOM     14  C   UNL     1       4.839  -0.819   1.845  1.00  0.00    +0.000 C 
ATOM     15  C   UNL     1       5.803  -0.337   0.769  1.00  0.00    +0.000 C 
ATOM     16  C   UNL     1       5.164  -0.385  -0.658  1.00  0.00    +0.000 C 
ATOM     17  C   UNL     1       3.583  -0.368  -0.584  1.00  0.00    +0.000 C 
ATOM     18  C   UNL     1       2.892  -0.111  -1.937  1.00  0.00    +0.000 C 
ATOM     19  C   UNL     1       1.380  -0.353  -1.880  1.00  0.00    +0.000 C 
ATOM     20  C   UNL     1       0.636   0.467  -0.790  1.00  0.00    +0.000 C 
ATOM     21  C   UNL     1      -0.866   0.007  -0.684  1.00  0.00    +0.000 C 
ATOM     22  C   UNL     1      -1.629  -0.041  -1.798  1.00  0.00    +0.000 C 
ATOM     23  C   UNL     1      -3.126  -0.035  -1.791  1.00  0.00    +0.000 C 
ATOM     24  C   UNL     1       0.600   1.960  -1.216  1.00  0.00    +0.000 C 
ATOM     25  C   UNL     1       5.747   0.714  -1.571  1.00  0.00    +0.000 C 
ATOM     26  C   UNL     1       5.587  -1.742  -1.292  1.00  0.00    +0.000 C 
ATOM     27  C   UNL     1       3.321   2.003   0.421  1.00  0.00    +0.000 C 
ATOM     28  C   UNL     1      -1.153  -1.585   1.271  1.00  0.00    +0.000 C 
ATOM     29  C   UNL     1      -6.049  -2.622   1.118  1.00  0.00    +0.000 C 
ATOM     30  C   UNL     1      -5.947  -0.380   2.194  1.00  0.00    +0.000 C 
ENDROOT
BRANCH  15  31
ATOM     31  O   UNL     1       6.254   0.962   1.141  1.00  0.00    +0.000 OA
ATOM     32  H   UNL     1       7.051   1.161   0.621  1.00  0.00    +0.000 HD
ENDBRANCH  15  31
TORSDOF 1
