REMARK  Name = SANCDB_00941_minRM1.pdb
AUTHORGENERATED BY OPEN BABEL 2.3.2
REMARK  13 active torsions:
REMARK  status: ('A' for Active; 'I' for Inactive)
REMARK    1  A    between atoms: C_1  and  O_2
REMARK    2  A    between atoms: O_2  and  C_3
REMARK    3  A    between atoms: C_4  and  C_5
REMARK    4  A    between atoms: C_5  and  C_6
REMARK    5  A    between atoms: C_7  and  C_8
REMARK    6  A    between atoms: C_7  and  C_9
REMARK    7  A    between atoms: C_11  and  C_12
REMARK    8  A    between atoms: C_17  and  O_18
REMARK    9  A    between atoms: C_20  and  O_21
REMARK   10  A    between atoms: C_26  and  C_27
REMARK   11  A    between atoms: C_27  and  C_28
REMARK   12  A    between atoms: C_29  and  C_30
REMARK   13  A    between atoms: C_29  and  C_31
REMARK                            x       y       z     vdW  Elec       q    Type
REMARK                         _______ _______ _______ _____ _____    ______ ____
ROOT
ATOM      1  C   UNL     1      -1.234   0.035   0.955  1.00  0.00    +0.000 A 
ATOM      2  C   UNL     1      -0.887  -1.229   0.448  1.00  0.00    +0.000 A 
ATOM      3  C   UNL     1       0.100  -1.316  -0.553  1.00  0.00    +0.000 A 
ATOM      4  C   UNL     1       0.771  -0.178  -1.020  1.00  0.00    +0.000 A 
ATOM      5  C   UNL     1       0.425   1.066  -0.463  1.00  0.00    +0.000 A 
ATOM      6  C   UNL     1      -0.562   1.191   0.532  1.00  0.00    +0.000 A 
ENDROOT
BRANCH   4   7
ATOM      7  C   UNL     1       1.841  -0.218  -2.108  1.00  0.00    +0.000 C 
ATOM      8  C   UNL     1       2.292  -1.568  -2.642  1.00  0.00    +0.000 C 
ATOM      9  C   UNL     1       3.070  -2.299  -1.582  1.00  0.00    +0.000 C 
ATOM     10  O   UNL     1       3.028  -3.523  -1.518  1.00  0.00    +0.000 OA
ATOM     11  C   UNL     1       3.907  -1.458  -0.686  1.00  0.00    +0.000 A 
ATOM     12  C   UNL     1       4.785  -1.988   0.270  1.00  0.00    +0.000 A 
ATOM     13  C   UNL     1       5.581  -1.143   1.050  1.00  0.00    +0.000 A 
ATOM     14  C   UNL     1       5.502   0.233   0.862  1.00  0.00    +0.000 A 
ATOM     15  C   UNL     1       4.636   0.775  -0.079  1.00  0.00    +0.000 A 
ATOM     16  C   UNL     1       3.826  -0.068  -0.841  1.00  0.00    +0.000 A 
ATOM     17  O   UNL     1       2.991   0.561  -1.728  1.00  0.00    +0.000 OA
BRANCH  12  18
ATOM     18  O   UNL     1       4.888  -3.338   0.451  1.00  0.00    +0.000 OA
ATOM     19  H   UNL     1       5.504  -3.544   1.171  1.00  0.00    +0.000 HD
ENDBRANCH  12  18
BRANCH  14  20
ATOM     20  O   UNL     1       6.264   1.097   1.590  1.00  0.00    +0.000 OA
ATOM     21  H   UNL     1       6.806   0.596   2.222  1.00  0.00    +0.000 HD
ENDBRANCH  14  20
ENDBRANCH   4   7
BRANCH   1  23
ATOM     22  C   UNL     1      -3.472   0.393   1.361  1.00  0.00    +0.000 C 
ATOM     23  O   UNL     1      -2.193   0.115   1.934  1.00  0.00    +0.000 OA
ENDBRANCH   1  23
BRANCH   2  24
ATOM     24  C   UNL     1      -1.544  -2.502   0.944  1.00  0.00    +0.000 C 
BRANCH  24  25
ATOM     25  C   UNL     1      -2.683  -2.950   0.066  1.00  0.00    +0.000 C 
ATOM     26  C   UNL     1      -3.951  -3.241   0.422  1.00  0.00    +0.000 C 
ATOM     27  C   UNL     1      -4.502  -3.177   1.819  1.00  0.00    +0.000 C 
ATOM     28  C   UNL     1      -4.953  -3.680  -0.615  1.00  0.00    +0.000 C 
ENDBRANCH  24  25
ENDBRANCH   2  24
BRANCH   6  29
ATOM     29  C   UNL     1      -0.825   2.556   1.128  1.00  0.00    +0.000 C 
BRANCH  29  30
ATOM     30  C   UNL     1      -1.469   3.502   0.147  1.00  0.00    +0.000 C 
ATOM     31  C   UNL     1      -0.956   4.625  -0.394  1.00  0.00    +0.000 C 
ATOM     32  C   UNL     1      -1.772   5.455  -1.351  1.00  0.00    +0.000 C 
ATOM     33  C   UNL     1       0.424   5.165  -0.135  1.00  0.00    +0.000 C 
ENDBRANCH  29  30
ENDBRANCH   6  29
TORSDOF 8
