REMARK  Name = /srv/my_project/app/compsite/backup/Dave/CORINA_stuff/newPDBs/SANC00623.pdb
AUTHORGENERATED BY OPEN BABEL 2.3.2
REMARK  3 active torsions:
REMARK  status: ('A' for Active; 'I' for Inactive)
REMARK    1  A    between atoms: C_1  and  C_2
REMARK    2  A    between atoms: C_7  and  C_25
REMARK    3  A    between atoms: C_7  and  O_26
REMARK                            x       y       z     vdW  Elec       q    Type
REMARK                         _______ _______ _______ _____ _____    ______ ____
ROOT
ATOM      1  C   UNL     1      -3.879   3.221   0.996  1.00  0.00    +0.000 C 
ATOM      2  C   UNL     1      -2.428   3.128   0.647  1.00  0.00    +0.000 C 
ATOM      3  C   UNL     1      -1.648   2.025   0.631  1.00  0.00    +0.000 C 
ATOM      4  C   UNL     1      -2.093   0.636   1.012  1.00  0.00    +0.000 C 
ATOM      5  C   UNL     1      -2.212  -0.364  -0.144  1.00  0.00    +0.000 C 
ATOM      6  C   UNL     1      -2.311   0.015  -1.435  1.00  0.00    +0.000 C 
ATOM      7  C   UNL     1      -2.213  -1.835   0.305  1.00  0.00    +0.000 C 
ATOM      8  C   UNL     1      -0.951  -2.128   1.173  1.00  0.00    +0.000 C 
ATOM      9  O   UNL     1      -0.965  -2.601   2.304  1.00  0.00    +0.000 OA
ATOM     10  O   UNL     1       0.184  -1.742   0.517  1.00  0.00    +0.000 OA
ATOM     11  C   UNL     1       1.351  -1.806   1.331  1.00  0.00    +0.000 C 
ATOM     12  C   UNL     1       2.499  -1.272   0.552  1.00  0.00    +0.000 C 
ATOM     13  C   UNL     1       3.435  -2.004  -0.065  1.00  0.00    +0.000 C 
ATOM     14  C   UNL     1       4.510  -1.136  -0.607  1.00  0.00    +0.000 C 
ATOM     15  N   UNL     1       4.017   0.248  -0.461  1.00  0.00    +0.000 NA
ATOM     16  C   UNL     1       2.864   0.188   0.511  1.00  0.00    +0.000 C 
ATOM     17  C   UNL     1       1.880   1.234  -0.040  1.00  0.00    +0.000 C 
ATOM     18  C   UNL     1       1.981   1.007  -1.536  1.00  0.00    +0.000 C 
ATOM     19  C   UNL     1       3.469   0.771  -1.734  1.00  0.00    +0.000 C 
ATOM     20  O   UNL     1       0.539   1.132   0.448  1.00  0.00    +0.000 OA
ATOM     21  C   UNL     1      -0.228   2.229   0.200  1.00  0.00    +0.000 C 
ATOM     22  O   UNL     1       0.172   3.259  -0.327  1.00  0.00    +0.000 OA
ATOM     23  C   UNL     1      -2.237  -2.889  -0.811  1.00  0.00    +0.000 C 
ENDROOT
BRANCH   7  24
ATOM     24  O   UNL     1      -3.419  -2.016   1.053  1.00  0.00    +0.000 OA
ATOM     25  H   UNL     1      -4.151  -1.701   0.498  1.00  0.00    +0.000 HD
ENDBRANCH   7  24
TORSDOF 1
