REMARK  Name = SANCDB_01061_minRM1.pdb
AUTHORGENERATED BY OPEN BABEL 2.3.2
REMARK  11 active torsions:
REMARK  status: ('A' for Active; 'I' for Inactive)
REMARK    1  A    between atoms: C_3  and  O_32
REMARK    2  A    between atoms: C_4  and  O_31
REMARK    3  A    between atoms: C_6  and  C_7
REMARK    4  A    between atoms: C_15  and  O_30
REMARK    5  A    between atoms: C_17  and  O_18
REMARK    6  A    between atoms: O_18  and  C_19
REMARK    7  A    between atoms: C_20  and  O_29
REMARK    8  A    between atoms: C_21  and  O_28
REMARK    9  A    between atoms: C_22  and  O_27
REMARK   10  A    between atoms: C_23  and  C_25
REMARK   11  A    between atoms: C_25  and  O_26
REMARK                            x       y       z     vdW  Elec       q    Type
REMARK                         _______ _______ _______ _____ _____    ______ ____
ROOT
ATOM      1  C   UNL     1       2.820  -0.552  -0.030  1.00  0.00    +0.000 A 
ATOM      2  C   UNL     1       1.833  -0.965   0.775  1.00  0.00    +0.000 A 
ATOM      3  C   UNL     1       0.558  -0.228   0.801  1.00  0.00    +0.000 A 
ATOM      4  O   UNL     1      -0.329  -0.597   1.559  1.00  0.00    +0.000 OA
ATOM      5  C   UNL     1       0.442   0.930  -0.111  1.00  0.00    +0.000 A 
ATOM      6  C   UNL     1       1.558   1.261  -0.886  1.00  0.00    +0.000 A 
ATOM      7  O   UNL     1       2.737   0.557  -0.852  1.00  0.00    +0.000 OA
ATOM      8  C   UNL     1       1.528   2.359  -1.751  1.00  0.00    +0.000 A 
ATOM      9  C   UNL     1       0.378   3.134  -1.824  1.00  0.00    +0.000 A 
ATOM     10  C   UNL     1      -0.741   2.821  -1.061  1.00  0.00    +0.000 A 
ATOM     11  C   UNL     1      -0.725   1.698  -0.225  1.00  0.00    +0.000 A 
ENDROOT
BRANCH   1  17
ATOM     12  C   UNL     1       4.190  -2.650  -0.190  1.00  0.00    +0.000 A 
ATOM     13  C   UNL     1       5.425  -3.301  -0.250  1.00  0.00    +0.000 A 
ATOM     14  C   UNL     1       6.588  -2.550  -0.207  1.00  0.00    +0.000 A 
ATOM     15  C   UNL     1       6.537  -1.163  -0.108  1.00  0.00    +0.000 A 
ATOM     16  C   UNL     1       5.312  -0.506  -0.049  1.00  0.00    +0.000 A 
ATOM     17  C   UNL     1       4.119  -1.248  -0.083  1.00  0.00    +0.000 A 
BRANCH  15  18
ATOM     18  O   UNL     1       7.724  -0.485  -0.071  1.00  0.00    +0.000 OA
ATOM     19  H   UNL     1       7.532   0.465   0.012  1.00  0.00    +0.000 HD
ENDBRANCH  15  18
BRANCH  14  20
ATOM     20  O   UNL     1       7.794  -3.186  -0.266  1.00  0.00    +0.000 OA
ATOM     21  H   UNL     1       8.455  -2.467  -0.220  1.00  0.00    +0.000 HD
ENDBRANCH  14  20
ENDBRANCH   1  17
BRANCH   9  22
ATOM     22  O   UNL     1       0.305   4.226  -2.636  1.00  0.00    +0.000 OA
ATOM     23  H   UNL     1       1.140   4.319  -3.126  1.00  0.00    +0.000 HD
ENDBRANCH   9  22
BRANCH  11  24
ATOM     24  O   UNL     1      -1.826   1.426   0.542  1.00  0.00    +0.000 OA
BRANCH  24  25
ATOM     25  C   UNL     1      -2.967   1.004  -0.226  1.00  0.00    +0.000 C 
ATOM     26  C   UNL     1      -2.962  -0.526  -0.455  1.00  0.00    +0.000 C 
ATOM     27  C   UNL     1      -4.398  -1.031  -0.475  1.00  0.00    +0.000 C 
ATOM     28  C   UNL     1      -5.085  -0.757   0.870  1.00  0.00    +0.000 C 
ATOM     29  C   UNL     1      -4.689   0.612   1.455  1.00  0.00    +0.000 C 
ATOM     30  O   UNL     1      -4.167   1.467   0.424  1.00  0.00    +0.000 OA
BRANCH  28  31
ATOM     31  O   UNL     1      -6.504  -0.826   0.633  1.00  0.00    +0.000 OA
ATOM     32  H   UNL     1      -6.770  -0.003   0.181  1.00  0.00    +0.000 HD
ENDBRANCH  28  31
BRANCH  27  33
ATOM     33  O   UNL     1      -4.406  -2.441  -0.756  1.00  0.00    +0.000 OA
ATOM     34  H   UNL     1      -5.329  -2.734  -0.618  1.00  0.00    +0.000 HD
ENDBRANCH  27  33
BRANCH  26  35
ATOM     35  O   UNL     1      -2.322  -0.862  -1.698  1.00  0.00    +0.000 OA
ATOM     36  H   UNL     1      -2.562  -1.799  -1.853  1.00  0.00    +0.000 HD
ENDBRANCH  26  35
BRANCH  29  37
ATOM     37  C   UNL     1      -3.745   0.488   2.663  1.00  0.00    +0.000 C 
BRANCH  37  38
ATOM     38  O   UNL     1      -3.404   1.785   3.147  1.00  0.00    +0.000 OA
ATOM     39  H   UNL     1      -2.925   2.222   2.416  1.00  0.00    +0.000 HD
ENDBRANCH  37  38
ENDBRANCH  29  37
ENDBRANCH  24  25
ENDBRANCH  11  24
TORSDOF 11
