REMARK  Name = /srv/my_project/app/compsite/backup/Dave/CORINA_stuff/newPDBs/SANC00429.pdb
AUTHORGENERATED BY OPEN BABEL 2.3.2
REMARK  22 active torsions:
REMARK  status: ('A' for Active; 'I' for Inactive)
REMARK    1  A    between atoms: O_1  and  C_2
REMARK    2  A    between atoms: O_1  and  C_71
REMARK    3  A    between atoms: C_4  and  O_6
REMARK    4  A    between atoms: O_6  and  C_7
REMARK    5  A    between atoms: C_24  and  C_26
REMARK    6  A    between atoms: C_29  and  C_31
REMARK    7  A    between atoms: C_34  and  C_35
REMARK    8  A    between atoms: C_40  and  C_41
REMARK    9  A    between atoms: C_45  and  C_47
REMARK   10  A    between atoms: C_47  and  O_48
REMARK   11  A    between atoms: C_49  and  O_51
REMARK   12  A    between atoms: C_52  and  O_54
REMARK   13  A    between atoms: O_54  and  C_55
REMARK   14  A    between atoms: C_58  and  C_60
REMARK   15  A    between atoms: C_60  and  O_61
REMARK   16  A    between atoms: C_62  and  O_64
REMARK   17  A    between atoms: C_65  and  O_67
REMARK   18  A    between atoms: C_68  and  O_70
REMARK   19  A    between atoms: C_74  and  C_85
REMARK   20  A    between atoms: C_76  and  O_78
REMARK   21  A    between atoms: C_79  and  O_81
REMARK   22  A    between atoms: C_82  and  O_84
REMARK                            x       y       z     vdW  Elec       q    Type
REMARK                         _______ _______ _______ _____ _____    ______ ____
ROOT
ATOM      1  C   UNL     1      -5.024  -1.134  -0.066  1.00  0.00    +0.000 C 
ATOM      2  C   UNL     1      -3.618  -1.771   0.022  1.00  0.00    +0.000 C 
ATOM      3  O   UNL     1      -3.350  -2.718  -1.011  1.00  0.00    +0.000 OA
ATOM      4  C   UNL     1      -4.014  -2.497  -2.265  1.00  0.00    +0.000 C 
ATOM      5  C   UNL     1      -4.316  -1.015  -2.531  1.00  0.00    +0.000 C 
ATOM      6  C   UNL     1      -5.264  -0.475  -1.442  1.00  0.00    +0.000 C 
ENDROOT
BRANCH   5   7
ATOM      7  O   UNL     1      -3.088  -0.269  -2.621  1.00  0.00    +0.000 OA
ATOM      8  H   UNL     1      -2.912   0.075  -1.718  1.00  0.00    +0.000 HD
ENDBRANCH   5   7
BRANCH   6   9
ATOM      9  O   UNL     1      -5.110   0.950  -1.362  1.00  0.00    +0.000 OA
BRANCH   9  10
ATOM     10  C   UNL     1      -6.301   1.617  -0.921  1.00  0.00    +0.000 C 
ATOM     11  O   UNL     1      -7.194   1.681  -2.029  1.00  0.00    +0.000 OA
ATOM     12  C   UNL     1      -8.301   2.587  -1.914  1.00  0.00    +0.000 C 
ATOM     13  C   UNL     1      -8.457   3.267  -0.543  1.00  0.00    +0.000 C 
ATOM     14  C   UNL     1      -7.136   3.803   0.030  1.00  0.00    +0.000 C 
ATOM     15  C   UNL     1      -5.902   3.019  -0.437  1.00  0.00    +0.000 C 
BRANCH  15  16
ATOM     16  O   UNL     1      -4.966   2.955   0.657  1.00  0.00    +0.000 OA
ATOM     17  H   UNL     1      -4.674   3.873   0.809  1.00  0.00    +0.000 HD
ENDBRANCH  15  16
BRANCH  14  18
ATOM     18  O   UNL     1      -6.967   5.195  -0.277  1.00  0.00    +0.000 OA
ATOM     19  H   UNL     1      -6.939   5.255  -1.260  1.00  0.00    +0.000 HD
ENDBRANCH  14  18
BRANCH  13  20
ATOM     20  O   UNL     1      -8.985   2.286   0.372  1.00  0.00    +0.000 OA
ATOM     21  H   UNL     1      -9.248   2.763   1.181  1.00  0.00    +0.000 HD
ENDBRANCH  13  20
BRANCH  12  22
ATOM     22  C   UNL     1      -8.215   3.593  -3.074  1.00  0.00    +0.000 C 
BRANCH  22  23
ATOM     23  O   UNL     1      -7.208   4.582  -2.851  1.00  0.00    +0.000 OA
ATOM     24  H   UNL     1      -6.960   4.920  -3.734  1.00  0.00    +0.000 HD
ENDBRANCH  22  23
ENDBRANCH  12  22
ENDBRANCH   9  10
ENDBRANCH   6   9
BRANCH   4  25
ATOM     25  C   UNL     1      -3.154  -3.124  -3.379  1.00  0.00    +0.000 C 
BRANCH  25  26
ATOM     26  O   UNL     1      -1.894  -2.479  -3.560  1.00  0.00    +0.000 OA
ATOM     27  H   UNL     1      -2.023  -1.536  -3.315  1.00  0.00    +0.000 HD
ENDBRANCH  25  26
ENDBRANCH   4  25
BRANCH   2  28
ATOM     28  O   UNL     1      -2.653  -0.710   0.004  1.00  0.00    +0.000 OA
BRANCH  28  29
ATOM     29  C   UNL     1      -1.413  -1.024   0.656  1.00  0.00    +0.000 C 
ATOM     30  C   UNL     1      -0.867   0.311   1.209  1.00  0.00    +0.000 C 
ATOM     31  C   UNL     1       0.638   0.379   1.123  1.00  0.00    +0.000 C 
ATOM     32  C   UNL     1       1.393   0.405   2.235  1.00  0.00    +0.000 C 
ATOM     33  C   UNL     1       2.887   0.348   2.245  1.00  0.00    +0.000 C 
ATOM     34  C   UNL     1       3.530   0.514   0.859  1.00  0.00    +0.000 C 
ATOM     35  C   UNL     1       4.970  -0.007   0.862  1.00  0.00    +0.000 C 
ATOM     36  C   UNL     1       5.972   0.582   1.848  1.00  0.00    +0.000 C 
ATOM     37  C   UNL     1       7.291  -0.009   1.341  1.00  0.00    +0.000 C 
ATOM     38  O   UNL     1       8.371   0.917   1.386  1.00  0.00    +0.000 OA
ATOM     39  C   UNL     1       9.265   0.612   0.296  1.00  0.00    +0.000 C 
ATOM     40  N   UNL     1      10.188  -0.432   0.749  1.00  0.00    +0.000 NA
ATOM     41  C   UNL     1      11.490   0.091   1.149  1.00  0.00    +0.000 C 
ATOM     42  C   UNL     1      12.217   0.777  -0.020  1.00  0.00    +0.000 C 
ATOM     43  C   UNL     1      12.870  -0.241  -0.958  1.00  0.00    +0.000 C 
ATOM     44  C   UNL     1      11.281   1.713  -0.806  1.00  0.00    +0.000 C 
ATOM     45  C   UNL     1       9.974   1.940  -0.059  1.00  0.00    +0.000 C 
ATOM     46  C   UNL     1       8.332   0.116  -0.843  1.00  0.00    +0.000 C 
ATOM     47  C   UNL     1       8.921  -0.914  -1.806  1.00  0.00    +0.000 C 
ATOM     48  C   UNL     1       7.091  -0.420  -0.127  1.00  0.00    +0.000 C 
ATOM     49  C   UNL     1       5.691   0.157  -0.495  1.00  0.00    +0.000 C 
ATOM     50  C   UNL     1       5.759   1.631  -0.973  1.00  0.00    +0.000 C 
ATOM     51  C   UNL     1       4.917  -0.680  -1.524  1.00  0.00    +0.000 C 
ATOM     52  C   UNL     1       3.441  -0.248  -1.609  1.00  0.00    +0.000 C 
ATOM     53  C   UNL     1       2.706  -0.238  -0.236  1.00  0.00    +0.000 C 
ATOM     54  C   UNL     1       1.221   0.297  -0.297  1.00  0.00    +0.000 C 
ATOM     55  C   UNL     1       1.158   1.710  -0.925  1.00  0.00    +0.000 C 
ATOM     56  C   UNL     1       0.319  -0.648  -1.156  1.00  0.00    +0.000 C 
ATOM     57  C   UNL     1      -0.425  -1.691  -0.316  1.00  0.00    +0.000 C 
ATOM     58  H   UNL     1       9.760  -0.874   1.559  1.00  0.00    +0.000 HD
ENDBRANCH  28  29
ENDBRANCH   2  28
BRANCH   1  59
ATOM     59  O   UNL     1      -6.036  -2.144   0.112  1.00  0.00    +0.000 OA
BRANCH  59  60
ATOM     60  C   UNL     1      -6.633  -2.108   1.414  1.00  0.00    +0.000 C 
ATOM     61  O   UNL     1      -5.642  -2.441   2.386  1.00  0.00    +0.000 OA
ATOM     62  C   UNL     1      -6.116  -2.470   3.738  1.00  0.00    +0.000 C 
ATOM     63  C   UNL     1      -7.260  -3.490   3.881  1.00  0.00    +0.000 C 
ATOM     64  C   UNL     1      -8.370  -3.283   2.843  1.00  0.00    +0.000 C 
ATOM     65  C   UNL     1      -7.798  -3.122   1.430  1.00  0.00    +0.000 C 
ATOM     66  C   UNL     1      -6.432  -1.071   4.257  1.00  0.00    +0.000 C 
BRANCH  65  67
ATOM     67  O   UNL     1      -8.858  -2.716   0.546  1.00  0.00    +0.000 OA
ATOM     68  H   UNL     1      -9.352  -2.025   1.032  1.00  0.00    +0.000 HD
ENDBRANCH  65  67
BRANCH  64  69
ATOM     69  O   UNL     1      -9.160  -2.123   3.155  1.00  0.00    +0.000 OA
ATOM     70  H   UNL     1      -9.729  -2.366   3.910  1.00  0.00    +0.000 HD
ENDBRANCH  64  69
BRANCH  63  71
ATOM     71  O   UNL     1      -6.728  -4.812   3.718  1.00  0.00    +0.000 OA
ATOM     72  H   UNL     1      -6.014  -4.768   3.051  1.00  0.00    +0.000 HD
ENDBRANCH  63  71
ENDBRANCH  59  60
ENDBRANCH   1  59
TORSDOF 17
