REMARK  Name = SANC00132.pdb
AUTHORGENERATED BY OPEN BABEL 2.3.0
REMARK  4 active torsions:
REMARK  status: ('A' for Active; 'I' for Inactive)
REMARK    1  A    between atoms: O_4  and  C_15
REMARK    2  A    between atoms: C_7  and  N_11
REMARK    3  A    between atoms: C_7  and  C_15
REMARK    4  A    between atoms: N_11  and  C_26
REMARK                            x       y       z     vdW  Elec       q    Type
REMARK                         _______ _______ _______ _____ _____    ______ ____
ROOT
ATOM      1  O   UNL     1       0.126  -1.516   3.356  1.00  0.00    +0.000 OA
ATOM      2  O   UNL     1      -2.998   3.329  -1.263  1.00  0.00    +0.000 OA
ATOM      3  C   UNL     1       1.003   0.594   2.782  1.00  0.00    +0.000 C 
ATOM      4  C   UNL     1      -4.537  -0.718  -0.927  1.00  0.00    +0.000 A 
ATOM      5  C   UNL     1      -2.848  -2.575  -0.083  1.00  0.00    +0.000 C 
ATOM      6  C   UNL     1      -1.577  -2.443   0.815  1.00  0.00    +0.000 C 
ATOM      7  C   UNL     1       1.813   2.023  -0.503  1.00  0.00    +0.000 C 
ATOM      8  N   UNL     1      -0.186   3.383  -0.517  1.00  0.00    +0.000 NA
ATOM      9  N   UNL     1      -4.388   0.649  -1.141  1.00  0.00    +0.000 N 
ATOM     10  S   UNL     1       1.349   3.148   1.827  1.00  0.00    +0.000 S 
ATOM     11  C   UNL     1       0.626  -0.820   2.475  1.00  0.00    +0.000 C 
ATOM     12  C   UNL     1       1.196   1.412   1.741  1.00  0.00    +0.000 C 
ATOM     13  C   UNL     1      -3.337  -1.223  -0.472  1.00  0.00    +0.000 A 
ATOM     14  C   UNL     1      -1.082   2.317  -0.042  1.00  0.00    +0.000 C 
ATOM     15  C   UNL     1      -0.390   0.944  -0.006  1.00  0.00    +0.000 C 
ATOM     16  C   UNL     1      -2.473   2.321  -0.804  1.00  0.00    +0.000 C 
ATOM     17  C   UNL     1      -1.117  -0.182  -0.052  1.00  0.00    +0.000 C 
ATOM     18  C   UNL     1      -3.109   1.018  -0.800  1.00  0.00    +0.000 A 
ATOM     19  C   UNL     1      -2.474  -0.130  -0.418  1.00  0.00    +0.000 A 
ATOM     20  C   UNL     1       1.190   3.327  -0.009  1.00  0.00    +0.000 C 
ATOM     21  C   UNL     1       1.723  -0.471   0.184  1.00  0.00    +0.000 C 
ATOM     22  C   UNL     1       0.781  -1.357   1.038  1.00  0.00    +0.000 C 
ATOM     23  N   UNL     1      -0.538  -1.470   0.218  1.00  0.00    +0.000 NA
ATOM     24  C   UNL     1       1.091   0.943   0.305  1.00  0.00    +0.000 C 
ATOM     25  H   UNL     1      -0.603   4.290  -0.291  1.00  0.00    +0.000 HD
ATOM     26  H   UNL     1      -5.109   1.279  -1.480  1.00  0.00    +0.000 HD
ATOM     27  H   UNL     1      -0.227  -1.845  -0.696  1.00  0.00    +0.000 HD
ENDROOT
BRANCH  21  28
ATOM     28  N   UNL     1       1.759  -0.982  -1.221  1.00  0.00    +0.000 NA
ATOM     29  H   UNL     1       2.054  -0.219  -1.850  1.00  0.00    +0.000 HD
BRANCH  28  30
ATOM     30  C   UNL     1       2.810  -2.028  -1.410  1.00  0.00    +0.000 C 
BRANCH  30  32
ATOM     31  O   UNL     1       5.252  -2.027  -1.269  1.00  0.00    +0.000 OA
ATOM     32  C   UNL     1       4.213  -1.435  -1.495  1.00  0.00    +0.000 C 
BRANCH  32  33
ATOM     33  O   UNL     1       4.219  -0.140  -1.883  1.00  0.00    +0.000 OA
ATOM     34  H   UNL     1       5.176   0.077  -1.971  1.00  0.00    +0.000 HD
ENDBRANCH  32  33
ENDBRANCH  30  32
ENDBRANCH  28  30
ENDBRANCH  21  28
TORSDOF 4
