REMARK  Name = /srv/my_project/app/compsite/backup/Dave/CORINA_stuff/newPDBs/SANC00116.pdb
AUTHORGENERATED BY OPEN BABEL 2.3.2
REMARK  12 active torsions:
REMARK  status: ('A' for Active; 'I' for Inactive)
REMARK    1  A    between atoms: C_3  and  C_5
REMARK    2  A    between atoms: C_5  and  O_6
REMARK    3  A    between atoms: O_6  and  C_7
REMARK    4  A    between atoms: C_7  and  C_9
REMARK    5  A    between atoms: C_9  and  C_12
REMARK    6  A    between atoms: C_10  and  C_11
REMARK    7  A    between atoms: C_12  and  O_13
REMARK    8  A    between atoms: C_19  and  O_20
REMARK    9  A    between atoms: O_20  and  C_21
REMARK   10  A    between atoms: C_21  and  C_23
REMARK   11  A    between atoms: C_23  and  C_24
REMARK   12  A    between atoms: C_25  and  C_26
REMARK                            x       y       z     vdW  Elec       q    Type
REMARK                         _______ _______ _______ _____ _____    ______ ____
ROOT
ATOM      1  C   UNL     1       0.974  -0.553  -1.939  1.00  0.00    +0.000 C 
ATOM      2  C   UNL     1       1.000  -1.847  -1.126  1.00  0.00    +0.000 C 
ATOM      3  C   UNL     1      -0.036  -2.717  -1.817  1.00  0.00    +0.000 C 
ATOM      4  C   UNL     1       0.175  -2.371  -3.284  1.00  0.00    +0.000 C 
ATOM      5  N   UNL     1       0.589  -0.960  -3.325  1.00  0.00    +0.000 NA
ATOM      6  C   UNL     1      -0.493  -0.062  -3.755  1.00  0.00    +0.000 C 
ATOM      7  C   UNL     1      -0.321   1.186  -2.905  1.00  0.00    +0.000 C 
ATOM      8  C   UNL     1       0.024   0.595  -1.546  1.00  0.00    +0.000 C 
ENDROOT
BRANCH   2   9
ATOM      9  C   UNL     1       0.831  -1.717   0.381  1.00  0.00    +0.000 C 
BRANCH   9  10
ATOM     10  O   UNL     1       1.838  -0.817   0.866  1.00  0.00    +0.000 OA
BRANCH  10  11
ATOM     11  C   UNL     1       1.522  -0.143   2.002  1.00  0.00    +0.000 C 
ATOM     12  O   UNL     1       0.470  -0.212   2.616  1.00  0.00    +0.000 OA
BRANCH  11  13
ATOM     13  C   UNL     1       2.657   0.743   2.357  1.00  0.00    +0.000 C 
ATOM     14  C   UNL     1       2.461   2.059   2.576  1.00  0.00    +0.000 C 
ATOM     15  C   UNL     1       1.176   2.816   2.457  1.00  0.00    +0.000 C 
BRANCH  13  16
ATOM     16  C   UNL     1       4.002   0.090   2.443  1.00  0.00    +0.000 C 
BRANCH  16  17
ATOM     17  O   UNL     1       4.018  -0.825   3.529  1.00  0.00    +0.000 OA
ATOM     18  H   UNL     1       4.910  -1.208   3.564  1.00  0.00    +0.000 HD
ENDBRANCH  16  17
ENDBRANCH  13  16
ENDBRANCH  11  13
ENDBRANCH  10  11
ENDBRANCH   9  10
ENDBRANCH   2   9
BRANCH   8  19
ATOM     19  O   UNL     1      -1.180   0.103  -0.932  1.00  0.00    +0.000 OA
BRANCH  19  20
ATOM     20  C   UNL     1      -1.899   1.016  -0.231  1.00  0.00    +0.000 C 
ATOM     21  O   UNL     1      -1.623   2.196  -0.086  1.00  0.00    +0.000 OA
BRANCH  20  22
ATOM     22  C   UNL     1      -3.115   0.351   0.307  1.00  0.00    +0.000 C 
ATOM     23  C   UNL     1      -3.882  -0.501  -0.660  1.00  0.00    +0.000 C 
ATOM     24  C   UNL     1      -3.522   0.545   1.576  1.00  0.00    +0.000 C 
ATOM     25  C   UNL     1      -2.842   1.344   2.644  1.00  0.00    +0.000 C 
ENDBRANCH  20  22
ENDBRANCH  19  20
ENDBRANCH   8  19
TORSDOF 9
