REMARK  Name = /srv/my_project/app/compsite/backup/Dave/CORINA_stuff/newPDBs/SANC00209.pdb
AUTHORGENERATED BY OPEN BABEL 2.3.2
REMARK  9 active torsions:
REMARK  status: ('A' for Active; 'I' for Inactive)
REMARK    1  A    between atoms: C_1  and  C_2
REMARK    2  A    between atoms: C_2  and  C_25
REMARK    3  A    between atoms: C_3  and  C_4
REMARK    4  A    between atoms: C_5  and  C_7
REMARK    5  A    between atoms: C_7  and  C_8
REMARK    6  A    between atoms: C_9  and  C_10
REMARK    7  A    between atoms: N_11  and  O_12
REMARK    8  A    between atoms: O_12  and  C_13
REMARK    9  A    between atoms: C_13  and  C_14
REMARK                            x       y       z     vdW  Elec       q    Type
REMARK                         _______ _______ _______ _____ _____    ______ ____
ROOT
ATOM      1  C   UNL     1       0.839   0.438  -1.635  1.00  0.00    +0.000 C 
ATOM      2  N   UNL     1       1.815  -0.360  -1.344  1.00  0.00    +0.000 NA
ENDROOT
BRANCH   1   5
ATOM      3  C   UNL     1      -1.427   1.304  -1.019  1.00  0.00    +0.000 C 
ATOM      4  C   UNL     1      -1.637   2.139  -2.255  1.00  0.00    +0.000 C 
ATOM      5  C   UNL     1      -0.348   0.541  -0.761  1.00  0.00    +0.000 C 
BRANCH   3   7
ATOM      6  C   UNL     1      -3.264   0.263   0.241  1.00  0.00    +0.000 C 
ATOM      7  C   UNL     1      -2.529   1.352  -0.057  1.00  0.00    +0.000 C 
ATOM      8 CL   UNL     1      -2.816   2.905   0.667  1.00  0.00    +0.000 Cl
BRANCH   6  11
ATOM      9  C   UNL     1      -5.044  -2.228   0.767  1.00  0.00    +0.000 C 
ATOM     10  C   UNL     1      -5.136  -0.887   1.450  1.00  0.00    +0.000 C 
ATOM     11  C   UNL     1      -4.363   0.188   1.187  1.00  0.00    +0.000 C 
BRANCH  10  12
ATOM     12  C   UNL     1      -6.234  -0.788   2.484  1.00  0.00    +0.000 C 
ATOM     13 CL   UNL     1      -5.796  -1.694   3.949  1.00  0.00    +0.000 Cl
ENDBRANCH  10  12
ENDBRANCH   6  11
ENDBRANCH   3   7
ENDBRANCH   1   5
BRANCH   2  14
ATOM     14  O   UNL     1       2.802  -0.247  -2.339  1.00  0.00    +0.000 OA
BRANCH  14  15
ATOM     15  C   UNL     1       3.897  -1.112  -2.021  1.00  0.00    +0.000 C 
BRANCH  15  16
ATOM     16  C   UNL     1       4.734  -0.524  -0.924  1.00  0.00    +0.000 A 
ATOM     17  C   UNL     1       4.802  -1.125   0.335  1.00  0.00    +0.000 A 
ATOM     18  F   UNL     1       4.148  -2.273   0.562  1.00  0.00    +0.000 F 
ATOM     19  C   UNL     1       5.551  -0.556   1.362  1.00  0.00    +0.000 A 
ATOM     20  F   UNL     1       5.607  -1.154   2.560  1.00  0.00    +0.000 F 
ATOM     21  C   UNL     1       6.245   0.625   1.142  1.00  0.00    +0.000 A 
ATOM     22  F   UNL     1       6.971   1.171   2.128  1.00  0.00    +0.000 F 
ATOM     23  C   UNL     1       6.194   1.234  -0.103  1.00  0.00    +0.000 A 
ATOM     24  F   UNL     1       6.871   2.370  -0.323  1.00  0.00    +0.000 F 
ATOM     25  C   UNL     1       5.445   0.663  -1.127  1.00  0.00    +0.000 A 
ATOM     26  F   UNL     1       5.413   1.257  -2.329  1.00  0.00    +0.000 F 
ENDBRANCH  15  16
ENDBRANCH  14  15
ENDBRANCH   2  14
TORSDOF 7
