REMARK  Name = /srv/my_project/app/compsite/backup/Dave/CORINA_stuff/newPDBs/SANC00226.pdb
AUTHORGENERATED BY OPEN BABEL 2.3.2
REMARK  23 active torsions:
REMARK  status: ('A' for Active; 'I' for Inactive)
REMARK    1  A    between atoms: C_1  and  C_2
REMARK    2  A    between atoms: C_4  and  O_42
REMARK    3  A    between atoms: C_5  and  C_22
REMARK    4  A    between atoms: C_7  and  O_8
REMARK    5  A    between atoms: O_8  and  C_9
REMARK    6  A    between atoms: C_11  and  O_21
REMARK    7  A    between atoms: C_13  and  O_20
REMARK    8  A    between atoms: C_15  and  O_19
REMARK    9  A    between atoms: C_22  and  C_23
REMARK   10  A    between atoms: C_24  and  C_25
REMARK   11  A    between atoms: C_24  and  C_26
REMARK   12  A    between atoms: C_26  and  C_27
REMARK   13  A    between atoms: C_27  and  C_28
REMARK   14  A    between atoms: C_29  and  C_30
REMARK   15  A    between atoms: C_29  and  C_31
REMARK   16  A    between atoms: C_31  and  C_32
REMARK   17  A    between atoms: C_32  and  C_33
REMARK   18  A    between atoms: C_34  and  C_35
REMARK   19  A    between atoms: C_34  and  C_36
REMARK   20  A    between atoms: C_36  and  C_37
REMARK   21  A    between atoms: C_37  and  C_38
REMARK   22  A    between atoms: C_39  and  C_40
REMARK   23  A    between atoms: C_39  and  C_41
REMARK                            x       y       z     vdW  Elec       q    Type
REMARK                         _______ _______ _______ _____ _____    ______ ____
ROOT
ATOM      1  C   UNL     1      -6.981   0.882   3.755  1.00  0.00    +0.000 C 
ATOM      2  C   UNL     1      -6.013   0.210   2.819  1.00  0.00    +0.000 A 
ATOM      3  C   UNL     1      -4.898  -0.458   3.341  1.00  0.00    +0.000 A 
ATOM      4  C   UNL     1      -3.983  -1.076   2.494  1.00  0.00    +0.000 A 
ATOM      5  C   UNL     1      -4.165  -1.064   1.108  1.00  0.00    +0.000 A 
ATOM      6  C   UNL     1      -5.284  -0.384   0.587  1.00  0.00    +0.000 A 
ATOM      7  C   UNL     1      -6.207   0.250   1.427  1.00  0.00    +0.000 A 
ENDROOT
BRANCH   4   8
ATOM      8  O   UNL     1      -2.919  -1.682   3.098  1.00  0.00    +0.000 OA
ATOM      9  H   UNL     1      -2.212  -1.794   2.442  1.00  0.00    +0.000 HD
ENDBRANCH   4   8
BRANCH   5  10
ATOM     10  C   UNL     1      -3.214  -1.758   0.156  1.00  0.00    +0.000 C 
BRANCH  10  11
ATOM     11  C   UNL     1      -1.924  -1.000  -0.014  1.00  0.00    +0.000 C 
ATOM     12  C   UNL     1      -0.663  -1.455   0.133  1.00  0.00    +0.000 C 
ATOM     13  C   UNL     1      -0.290  -2.879   0.452  1.00  0.00    +0.000 C 
BRANCH  12  14
ATOM     14  C   UNL     1       0.514  -0.513  -0.068  1.00  0.00    +0.000 C 
BRANCH  14  15
ATOM     15  C   UNL     1       1.225  -0.171   1.246  1.00  0.00    +0.000 C 
BRANCH  15  16
ATOM     16  C   UNL     1       2.341   0.813   1.024  1.00  0.00    +0.000 C 
ATOM     17  C   UNL     1       3.663   0.558   0.942  1.00  0.00    +0.000 C 
ATOM     18  C   UNL     1       4.280  -0.810   1.045  1.00  0.00    +0.000 C 
BRANCH  17  19
ATOM     19  C   UNL     1       4.647   1.704   0.765  1.00  0.00    +0.000 C 
BRANCH  19  20
ATOM     20  C   UNL     1       4.841   2.160  -0.688  1.00  0.00    +0.000 C 
BRANCH  20  21
ATOM     21  C   UNL     1       5.598   1.173  -1.535  1.00  0.00    +0.000 C 
ATOM     22  C   UNL     1       6.904   1.201  -1.869  1.00  0.00    +0.000 C 
ATOM     23  C   UNL     1       7.878   2.258  -1.425  1.00  0.00    +0.000 C 
BRANCH  22  24
ATOM     24  C   UNL     1       7.477   0.127  -2.779  1.00  0.00    +0.000 C 
BRANCH  24  25
ATOM     25  C   UNL     1       7.948  -1.137  -2.044  1.00  0.00    +0.000 C 
BRANCH  25  26
ATOM     26  C   UNL     1       9.264  -0.971  -1.333  1.00  0.00    +0.000 C 
ATOM     27  C   UNL     1       9.493  -0.947  -0.005  1.00  0.00    +0.000 C 
ATOM     28  C   UNL     1      10.893  -0.800   0.530  1.00  0.00    +0.000 C 
ATOM     29  C   UNL     1       8.433  -1.037   1.059  1.00  0.00    +0.000 C 
ENDBRANCH  25  26
ENDBRANCH  24  25
ENDBRANCH  22  24
ENDBRANCH  20  21
ENDBRANCH  19  20
ENDBRANCH  17  19
ENDBRANCH  15  16
ENDBRANCH  14  15
ENDBRANCH  12  14
ENDBRANCH  10  11
ENDBRANCH   5  10
BRANCH   7  30
ATOM     30  O   UNL     1      -7.328   0.921   1.019  1.00  0.00    +0.000 OA
BRANCH  30  31
ATOM     31  C   UNL     1      -7.649   1.006  -0.374  1.00  0.00    +0.000 C 
ATOM     32  C   UNL     1      -8.399  -0.286  -0.814  1.00  0.00    +0.000 C 
ATOM     33  C   UNL     1      -9.189  -0.007  -2.088  1.00  0.00    +0.000 C 
ATOM     34  C   UNL     1     -10.164   1.173  -1.887  1.00  0.00    +0.000 C 
ATOM     35  C   UNL     1      -9.811   2.017  -0.655  1.00  0.00    +0.000 C 
ATOM     36  O   UNL     1      -8.401   2.218  -0.603  1.00  0.00    +0.000 OA
BRANCH  34  37
ATOM     37  O   UNL     1     -10.128   1.994  -3.070  1.00  0.00    +0.000 OA
ATOM     38  H   UNL     1      -9.338   2.564  -2.973  1.00  0.00    +0.000 HD
ENDBRANCH  34  37
BRANCH  33  39
ATOM     39  O   UNL     1      -8.281   0.259  -3.167  1.00  0.00    +0.000 OA
ATOM     40  H   UNL     1      -8.842   0.633  -3.877  1.00  0.00    +0.000 HD
ENDBRANCH  33  39
BRANCH  32  41
ATOM     41  O   UNL     1      -9.309  -0.750   0.201  1.00  0.00    +0.000 OA
ATOM     42  H   UNL     1      -8.825  -0.677   1.049  1.00  0.00    +0.000 HD
ENDBRANCH  32  41
ENDBRANCH  30  31
ENDBRANCH   7  30
TORSDOF 17
