REMARK  Name = /srv/my_project/app/compsite/backup/Dave/CORINA_stuff/newPDBs/SANC00254.pdb
AUTHORGENERATED BY OPEN BABEL 2.3.2
REMARK  6 active torsions:
REMARK  status: ('A' for Active; 'I' for Inactive)
REMARK    1  A    between atoms: C_2  and  C_3
REMARK    2  A    between atoms: C_3  and  C_4
REMARK    3  A    between atoms: C_3  and  C_6
REMARK    4  A    between atoms: C_6  and  C_9
REMARK    5  A    between atoms: C_10  and  C_11
REMARK    6  A    between atoms: C_11  and  C_14
REMARK                            x       y       z     vdW  Elec       q    Type
REMARK                         _______ _______ _______ _____ _____    ______ ____
ROOT
ATOM      1  C   UNL     1       0.649  -0.426  -0.110  1.00  0.00    +0.000 C 
ATOM      2  C   UNL     1       1.576   0.046  -0.962  1.00  0.00    +0.000 C 
ENDROOT
BRANCH   2   3
ATOM      3  C   UNL     1       2.982   0.366  -0.684  1.00  0.00    +0.000 C 
ATOM      4  C   UNL     1       3.804   0.806  -1.658  1.00  0.00    +0.000 C 
ATOM      5 CL   UNL     1       3.417   1.058  -3.311  1.00  0.00    +0.000 Cl
BRANCH   3   6
ATOM      6  C   UNL     1       3.581   0.231   0.709  1.00  0.00    +0.000 C 
ATOM      7 CL   UNL     1       2.787   1.297   1.893  1.00  0.00    +0.000 Cl
ATOM      8 CL   UNL     1       3.611  -1.458   1.267  1.00  0.00    +0.000 Cl
ENDBRANCH   3   6
ENDBRANCH   2   3
BRANCH   1   9
ATOM      9  C   UNL     1      -0.788  -0.715  -0.504  1.00  0.00    +0.000 C 
ATOM     10 CL   UNL     1      -1.064  -2.467  -0.153  1.00  0.00    +0.000 Cl
BRANCH   9  11
ATOM     11  C   UNL     1      -1.873   0.192   0.174  1.00  0.00    +0.000 C 
ATOM     12  C   UNL     1      -1.817   0.144   1.711  1.00  0.00    +0.000 C 
ATOM     13 CL   UNL     1      -1.553   1.927  -0.301  1.00  0.00    +0.000 Cl
BRANCH  11  15
ATOM     14  C   UNL     1      -4.356  -0.510   0.256  1.00  0.00    +0.000 C 
ATOM     15  C   UNL     1      -3.258  -0.109  -0.401  1.00  0.00    +0.000 C 
ENDBRANCH  11  15
ENDBRANCH   9  11
ENDBRANCH   1   9
TORSDOF 5
