REMARK  Name = /srv/my_project/app/compsite/backup/Dave/CORINA_stuff/newPDBs/SANC00331.pdb
AUTHORGENERATED BY OPEN BABEL 2.3.2
REMARK  4 active torsions:
REMARK  status: ('A' for Active; 'I' for Inactive)
REMARK    1  A    between atoms: C_4  and  O_6
REMARK    2  A    between atoms: O_6  and  C_7
REMARK    3  A    between atoms: C_26  and  O_27
REMARK    4  A    between atoms: O_27  and  C_28
REMARK                            x       y       z     vdW  Elec       q    Type
REMARK                         _______ _______ _______ _____ _____    ______ ____
ROOT
ATOM      1  C   UNL     1       1.373   0.877  -0.360  1.00  0.00    +0.000 C 
ATOM      2  C   UNL     1       2.879   1.177  -0.289  1.00  0.00    +0.000 C 
ATOM      3  C   UNL     1       3.441   0.755   1.073  1.00  0.00    +0.000 C 
ATOM      4  C   UNL     1       3.033  -0.640   1.440  1.00  0.00    +0.000 C 
ATOM      5  O   UNL     1       3.223  -1.617   0.416  1.00  0.00    +0.000 OA
ATOM      6  C   UNL     1       1.855  -1.330   0.782  1.00  0.00    +0.000 C 
ATOM      7  C   UNL     1       1.030  -0.633  -0.282  1.00  0.00    +0.000 C 
ATOM      8  C   UNL     1       1.328  -1.109  -1.716  1.00  0.00    +0.000 C 
ATOM      9  C   UNL     1       1.112   0.136  -2.581  1.00  0.00    +0.000 C 
ATOM     10  N   UNL     1       0.796   1.261  -1.673  1.00  0.00    +0.000 NA
ATOM     11  C   UNL     1      -0.673   1.382  -1.488  1.00  0.00    +0.000 C 
ATOM     12  C   UNL     1      -1.325   0.241  -0.710  1.00  0.00    +0.000 A 
ATOM     13  C   UNL     1      -0.501  -0.757  -0.091  1.00  0.00    +0.000 A 
ATOM     14  C   UNL     1      -1.120  -1.833   0.558  1.00  0.00    +0.000 A 
ATOM     15  C   UNL     1      -2.498  -1.850   0.634  1.00  0.00    +0.000 A 
ATOM     16  O   UNL     1      -3.217  -2.831   1.248  1.00  0.00    +0.000 OA
ATOM     17  C   UNL     1      -4.557  -2.358   1.035  1.00  0.00    +0.000 C 
ATOM     18  O   UNL     1      -4.613  -1.125   0.296  1.00  0.00    +0.000 OA
ATOM     19  C   UNL     1      -3.291  -0.868   0.080  1.00  0.00    +0.000 A 
ATOM     20  C   UNL     1      -2.736   0.198  -0.606  1.00  0.00    +0.000 A 
ENDROOT
BRANCH   3  21
ATOM     21  O   UNL     1       2.922   1.656   2.061  1.00  0.00    +0.000 OA
ATOM     22  C   UNL     1       3.851   1.929   3.102  1.00  0.00    +0.000 C 
ENDBRANCH   3  21
BRANCH  20  23
ATOM     23  O   UNL     1      -3.402   1.226  -1.212  1.00  0.00    +0.000 OA
ATOM     24  C   UNL     1      -4.819   1.257  -1.105  1.00  0.00    +0.000 C 
ENDBRANCH  20  23
TORSDOF 2
