REMARK  Name = /srv/my_project/app/compsite/backup/Dave/CORINA_stuff/newPDBs/SANC00475.pdb
AUTHORGENERATED BY OPEN BABEL 2.3.2
REMARK  7 active torsions:
REMARK  status: ('A' for Active; 'I' for Inactive)
REMARK    1  A    between atoms: C_1  and  O_2
REMARK    2  A    between atoms: O_2  and  C_3
REMARK    3  A    between atoms: C_5  and  C_6
REMARK    4  A    between atoms: C_11  and  O_12
REMARK    5  A    between atoms: C_13  and  O_14
REMARK    6  A    between atoms: O_14  and  C_15
REMARK    7  A    between atoms: C_16  and  O_17
REMARK                            x       y       z     vdW  Elec       q    Type
REMARK                         _______ _______ _______ _____ _____    ______ ____
ROOT
ATOM      1  C   UNL     1      -3.737   0.513   0.217  1.00  0.00    +0.000 A 
ATOM      2  C   UNL     1      -3.613  -0.876   0.185  1.00  0.00    +0.000 A 
ATOM      3  C   UNL     1      -2.346  -1.493   0.111  1.00  0.00    +0.000 A 
ATOM      4  C   UNL     1      -2.295  -2.998   0.081  1.00  0.00    +0.000 C 
ATOM      5  C   UNL     1      -1.189  -0.684   0.068  1.00  0.00    +0.000 A 
ATOM      6  C   UNL     1       0.189  -1.234  -0.010  1.00  0.00    +0.000 A 
ATOM      7  O   UNL     1       0.376  -2.442  -0.042  1.00  0.00    +0.000 OA
ATOM      8  C   UNL     1       1.312  -0.268  -0.048  1.00  0.00    +0.000 A 
ATOM      9  C   UNL     1       2.660  -0.643  -0.122  1.00  0.00    +0.000 A 
ATOM     10  C   UNL     1       3.696   0.315  -0.156  1.00  0.00    +0.000 A 
ATOM     11  C   UNL     1       3.356   1.670  -0.114  1.00  0.00    +0.000 A 
ATOM     12  C   UNL     1       2.015   2.052  -0.040  1.00  0.00    +0.000 A 
ATOM     13  C   UNL     1       1.002   1.087  -0.008  1.00  0.00    +0.000 A 
ATOM     14  O   UNL     1      -0.273   1.586   0.065  1.00  0.00    +0.000 OA
ATOM     15  C   UNL     1      -1.322   0.704   0.101  1.00  0.00    +0.000 A 
ATOM     16  C   UNL     1      -2.586   1.295   0.174  1.00  0.00    +0.000 A 
ENDROOT
BRANCH   1  18
ATOM     17  C   UNL     1      -6.112   0.466   0.333  1.00  0.00    +0.000 C 
ATOM     18  O   UNL     1      -4.906   1.218   0.287  1.00  0.00    +0.000 OA
ENDBRANCH   1  18
BRANCH   9  19
ATOM     19  O   UNL     1       3.026  -1.966  -0.164  1.00  0.00    +0.000 OA
ATOM     20  H   UNL     1       4.001  -1.977  -0.213  1.00  0.00    +0.000 HD
ENDBRANCH   9  19
BRANCH  10  21
ATOM     21  O   UNL     1       4.948  -0.246  -0.228  1.00  0.00    +0.000 OA
ATOM     22  C   UNL     1       6.074   0.618  -0.268  1.00  0.00    +0.000 C 
ENDBRANCH  10  21
BRANCH  11  23
ATOM     23  O   UNL     1       4.308   2.650  -0.143  1.00  0.00    +0.000 OA
ATOM     24  H   UNL     1       3.882   3.523  -0.106  1.00  0.00    +0.000 HD
ENDBRANCH  11  23
TORSDOF 4
