REMARK  Name = /srv/my_project/app/compsite/backup/Dave/CORINA_stuff/newPDBs/SANC00497.pdb
AUTHORGENERATED BY OPEN BABEL 2.3.2
REMARK  29 active torsions:
REMARK  status: ('A' for Active; 'I' for Inactive)
REMARK    1  A    between atoms: C_2  and  O_3
REMARK    2  A    between atoms: O_3  and  C_4
REMARK    3  A    between atoms: C_6  and  O_8
REMARK    4  A    between atoms: C_11  and  O_13
REMARK    5  A    between atoms: O_13  and  C_14
REMARK    6  A    between atoms: C_25  and  O_27
REMARK    7  A    between atoms: O_27  and  C_28
REMARK    8  A    between atoms: C_31  and  C_33
REMARK    9  A    between atoms: C_33  and  O_34
REMARK   10  A    between atoms: C_35  and  O_37
REMARK   11  A    between atoms: C_38  and  O_40
REMARK   12  A    between atoms: C_41  and  O_43
REMARK   13  A    between atoms: C_46  and  C_47
REMARK   14  A    between atoms: C_52  and  C_53
REMARK   15  A    between atoms: C_54  and  O_55
REMARK   16  A    between atoms: C_54  and  C_56
REMARK   17  A    between atoms: C_56  and  C_58
REMARK   18  A    between atoms: C_56  and  C_59
REMARK   19  A    between atoms: C_59  and  C_61
REMARK   20  A    between atoms: C_61  and  C_62
REMARK   21  A    between atoms: C_62  and  C_63
REMARK   22  A    between atoms: C_63  and  C_64
REMARK   23  A    between atoms: C_63  and  C_65
REMARK   24  A    between atoms: C_66  and  O_68
REMARK   25  A    between atoms: O_68  and  C_69
REMARK   26  A    between atoms: C_69  and  C_70
REMARK   27  A    between atoms: C_74  and  O_76
REMARK   28  A    between atoms: C_77  and  O_79
REMARK   29  A    between atoms: C_80  and  O_82
REMARK                            x       y       z     vdW  Elec       q    Type
REMARK                         _______ _______ _______ _____ _____    ______ ____
ROOT
ATOM      1  C   UNL     1       1.520   0.823   2.054  1.00  0.00    +0.000 C 
ATOM      2  C   UNL     1       0.175   0.078   1.907  1.00  0.00    +0.000 C 
ATOM      3  C   UNL     1       0.557  -1.334   1.488  1.00  0.00    +0.000 C 
ATOM      4  C   UNL     1      -0.540  -2.214   0.872  1.00  0.00    +0.000 C 
ATOM      5  C   UNL     1      -1.752  -2.335   1.811  1.00  0.00    +0.000 C 
ATOM      6  C   UNL     1      -2.580  -3.569   1.616  1.00  0.00    +0.000 C 
ATOM      7  C   UNL     1      -2.278  -4.580   0.779  1.00  0.00    +0.000 C 
ATOM      8  C   UNL     1      -3.080  -5.865   0.859  1.00  0.00    +0.000 C 
ATOM      9  C   UNL     1      -2.963  -6.825  -0.332  1.00  0.00    +0.000 C 
ATOM     10  C   UNL     1      -1.529  -6.976  -0.861  1.00  0.00    +0.000 C 
ATOM     11  C   UNL     1      -0.516  -5.990  -0.265  1.00  0.00    +0.000 C 
ATOM     12  C   UNL     1      -1.049  -4.542  -0.131  1.00  0.00    +0.000 C 
ATOM     13  C   UNL     1      -1.457  -4.005  -1.526  1.00  0.00    +0.000 C 
ATOM     14  C   UNL     1       0.047  -3.616   0.530  1.00  0.00    +0.000 C 
ATOM     15  C   UNL     1       1.366  -3.513  -0.275  1.00  0.00    +0.000 C 
ATOM     16  C   UNL     1       2.386  -2.533   0.335  1.00  0.00    +0.000 C 
ATOM     17  C   UNL     1       1.788  -1.129   0.566  1.00  0.00    +0.000 C 
ATOM     18  C   UNL     1       1.431  -0.487  -0.799  1.00  0.00    +0.000 C 
ATOM     19  C   UNL     1       2.627  -0.133   1.451  1.00  0.00    +0.000 C 
ENDROOT
BRANCH  19  20
ATOM     20  C   UNL     1       3.787   0.636   0.752  1.00  0.00    +0.000 C 
ATOM     21  C   UNL     1       4.908  -0.263   0.229  1.00  0.00    +0.000 C 
BRANCH  20  22
ATOM     22  C   UNL     1       4.420   1.647   1.714  1.00  0.00    +0.000 C 
ATOM     23  O   UNL     1       4.330   1.520   2.939  1.00  0.00    +0.000 OA
BRANCH  22  24
ATOM     24  C   UNL     1       5.179   2.815   1.109  1.00  0.00    +0.000 C 
BRANCH  24  25
ATOM     25  C   UNL     1       6.579   2.916   1.714  1.00  0.00    +0.000 C 
BRANCH  25  26
ATOM     26  C   UNL     1       7.453   4.001   1.063  1.00  0.00    +0.000 C 
ATOM     27  C   UNL     1       8.883   3.910   1.603  1.00  0.00    +0.000 C 
ATOM     28  C   UNL     1       6.902   5.407   1.301  1.00  0.00    +0.000 C 
ENDBRANCH  25  26
ENDBRANCH  24  25
ENDBRANCH  22  24
ENDBRANCH  20  22
ENDBRANCH  19  20
BRANCH  19  29
ATOM     29  O   UNL     1       3.184  -0.899   2.544  1.00  0.00    +0.000 OA
ATOM     30  H   UNL     1       3.638  -0.261   3.136  1.00  0.00    +0.000 HD
ENDBRANCH  19  29
BRANCH   9  31
ATOM     31  O   UNL     1      -3.830  -6.348  -1.373  1.00  0.00    +0.000 OA
BRANCH  31  32
ATOM     32  C   UNL     1      -4.509  -7.400  -2.078  1.00  0.00    +0.000 C 
ATOM     33  O   UNL     1      -3.574  -8.239  -2.748  1.00  0.00    +0.000 OA
ATOM     34  C   UNL     1      -4.107  -9.036  -3.828  1.00  0.00    +0.000 C 
ATOM     35  C   UNL     1      -5.643  -9.112  -3.891  1.00  0.00    +0.000 C 
ATOM     36  C   UNL     1      -6.312  -7.733  -3.799  1.00  0.00    +0.000 C 
ATOM     37  C   UNL     1      -5.439  -6.702  -3.080  1.00  0.00    +0.000 C 
BRANCH  37  38
ATOM     38  O   UNL     1      -6.285  -5.730  -2.445  1.00  0.00    +0.000 OA
ATOM     39  H   UNL     1      -5.686  -5.231  -1.850  1.00  0.00    +0.000 HD
ENDBRANCH  37  38
BRANCH  36  40
ATOM     40  O   UNL     1      -6.626  -7.255  -5.114  1.00  0.00    +0.000 OA
ATOM     41  H   UNL     1      -7.052  -6.384  -4.987  1.00  0.00    +0.000 HD
ENDBRANCH  36  40
BRANCH  35  42
ATOM     42  O   UNL     1      -6.089  -9.909  -2.779  1.00  0.00    +0.000 OA
ATOM     43  H   UNL     1      -7.010 -10.170  -2.963  1.00  0.00    +0.000 HD
ENDBRANCH  35  42
BRANCH  34  44
ATOM     44  C   UNL     1      -3.498  -8.513  -5.138  1.00  0.00    +0.000 C 
BRANCH  44  45
ATOM     45  O   UNL     1      -2.072  -8.563  -5.055  1.00  0.00    +0.000 OA
ATOM     46  H   UNL     1      -1.848  -8.220  -4.168  1.00  0.00    +0.000 HD
ENDBRANCH  44  45
ENDBRANCH  34  44
ENDBRANCH  31  32
ENDBRANCH   9  31
BRANCH   1  47
ATOM     47  O   UNL     1       1.441   2.057   1.332  1.00  0.00    +0.000 OA
BRANCH  47  52
ATOM     48  C   UNL     1       0.286   5.599   2.022  1.00  0.00    +0.000 C 
ATOM     49  C   UNL     1       0.160   5.280   3.521  1.00  0.00    +0.000 C 
ATOM     50  C   UNL     1      -0.570   3.952   3.731  1.00  0.00    +0.000 C 
ATOM     51  O   UNL     1      -0.155   2.902   2.854  1.00  0.00    +0.000 OA
ATOM     52  C   UNL     1       1.061   3.166   2.161  1.00  0.00    +0.000 C 
ATOM     53  C   UNL     1       0.869   4.394   1.245  1.00  0.00    +0.000 C 
BRANCH  49  54
ATOM     54  O   UNL     1      -0.447   6.328   4.268  1.00  0.00    +0.000 OA
ATOM     55  H   UNL     1      -1.230   6.649   3.771  1.00  0.00    +0.000 HD
ENDBRANCH  49  54
BRANCH  53  56
ATOM     56  O   UNL     1       2.132   4.747   0.628  1.00  0.00    +0.000 OA
BRANCH  56  57
ATOM     57  C   UNL     1       2.031   5.558  -0.463  1.00  0.00    +0.000 C 
ATOM     58  C   UNL     1       3.380   5.780  -1.073  1.00  0.00    +0.000 C 
ATOM     59  O   UNL     1       0.996   6.068  -0.873  1.00  0.00    +0.000 OA
ENDBRANCH  56  57
ENDBRANCH  53  56
BRANCH  48  60
ATOM     60  O   UNL     1      -1.002   5.868   1.438  1.00  0.00    +0.000 OA
BRANCH  60  61
ATOM     61  C   UNL     1      -1.352   7.250   1.361  1.00  0.00    +0.000 C 
ATOM     62  O   UNL     1      -2.129   7.595   2.511  1.00  0.00    +0.000 OA
ATOM     63  C   UNL     1      -3.533   7.372   2.332  1.00  0.00    +0.000 C 
ATOM     64  C   UNL     1      -4.118   8.261   1.225  1.00  0.00    +0.000 C 
ATOM     65  C   UNL     1      -3.059   8.629   0.181  1.00  0.00    +0.000 C 
ATOM     66  C   UNL     1      -2.076   7.480   0.013  1.00  0.00    +0.000 C 
BRANCH  66  67
ATOM     67  O   UNL     1      -1.154   7.801  -1.044  1.00  0.00    +0.000 OA
ATOM     68  H   UNL     1      -0.475   7.085  -1.057  1.00  0.00    +0.000 HD
ENDBRANCH  66  67
BRANCH  65  69
ATOM     69  O   UNL     1      -3.705   8.931  -1.064  1.00  0.00    +0.000 OA
ATOM     70  H   UNL     1      -2.985   8.919  -1.729  1.00  0.00    +0.000 HD
ENDBRANCH  65  69
BRANCH  64  71
ATOM     71  O   UNL     1      -4.649   9.470   1.783  1.00  0.00    +0.000 OA
ATOM     72  H   UNL     1      -4.943  10.007   1.022  1.00  0.00    +0.000 HD
ENDBRANCH  64  71
ENDBRANCH  60  61
ENDBRANCH  48  60
ENDBRANCH  47  52
ENDBRANCH   1  47
TORSDOF 23
