REMARK  Name = /srv/my_project/app/compsite/backup/Dave/CORINA_stuff/newPDBs/SANC00204.pdb
AUTHORGENERATED BY OPEN BABEL 2.3.2
REMARK  7 active torsions:
REMARK  status: ('A' for Active; 'I' for Inactive)
REMARK    1  A    between atoms: C_1  and  C_2
REMARK    2  A    between atoms: C_2  and  C_6
REMARK    3  A    between atoms: C_3  and  C_4
REMARK    4  A    between atoms: C_7  and  C_8
REMARK    5  A    between atoms: C_8  and  C_10
REMARK    6  A    between atoms: C_10  and  C_11
REMARK    7  A    between atoms: C_10  and  C_13
REMARK                            x       y       z     vdW  Elec       q    Type
REMARK                         _______ _______ _______ _____ _____    ______ ____
ROOT
ATOM      1  C   UNL     1       0.900   0.595  -0.278  1.00  0.00    +0.000 C 
ATOM      2  C   UNL     1       0.134  -0.450  -0.639  1.00  0.00    +0.000 C 
ENDROOT
BRANCH   1   4
ATOM      3  C   UNL     1       2.810  -0.839   0.592  1.00  0.00    +0.000 C 
ATOM      4  C   UNL     1       2.225   0.529   0.343  1.00  0.00    +0.000 C 
ATOM      5  C   UNL     1       2.833   1.693   0.649  1.00  0.00    +0.000 C 
BRANCH   5   6
ATOM      6  C   UNL     1       4.165   1.855   1.273  1.00  0.00    +0.000 C 
ATOM      7  O   UNL     1       4.613   2.969   1.518  1.00  0.00    +0.000 OA
ENDBRANCH   5   6
ENDBRANCH   1   4
BRANCH   2   8
ATOM      8  C   UNL     1      -1.230  -0.316  -1.281  1.00  0.00    +0.000 C 
ATOM      9 CL   UNL     1      -1.114  -1.089  -2.908  1.00  0.00    +0.000 Cl
BRANCH   8  10
ATOM     10  C   UNL     1      -2.420  -0.870  -0.429  1.00  0.00    +0.000 C 
ATOM     11  C   UNL     1      -3.766  -0.697  -1.158  1.00  0.00    +0.000 C 
ATOM     12 CL   UNL     1      -2.217  -2.664  -0.150  1.00  0.00    +0.000 Cl
BRANCH  10  13
ATOM     13  C   UNL     1      -2.482  -0.242   0.976  1.00  0.00    +0.000 C 
ATOM     14 BR   UNL     1      -2.735   1.694   0.962  1.00  0.00    +0.000 Br
ENDBRANCH  10  13
ENDBRANCH   8  10
ENDBRANCH   2   8
TORSDOF 5
