REMARK  Name = 
REMARK  15 active torsions:
REMARK  status: ('A' for Active; 'I' for Inactive)
REMARK    1  A    between atoms: C_1  and  C_2
REMARK    2  A    between atoms: C_2  and  C_4
REMARK    3  A    between atoms: C_4  and  C_5
REMARK    4  A    between atoms: C_10  and  C_11
REMARK    5  A    between atoms: C_13  and  O_14
REMARK    6  A    between atoms: C_15  and  C_16
REMARK    7  A    between atoms: C_19  and  C_21
REMARK    8  A    between atoms: C_21  and  O_22
REMARK    9  A    between atoms: C_23  and  O_25
REMARK   10  A    between atoms: C_26  and  O_28
REMARK   11  A    between atoms: C_29  and  O_31
REMARK   12  A    between atoms: O_31  and  C_32
REMARK   13  A    between atoms: C_32  and  C_34
REMARK   14  A    between atoms: C_35  and  C_36
REMARK   15  A    between atoms: C_39  and  O_40
REMARK                            x       y       z     vdW  Elec       q    Type
REMARK                         _______ _______ _______ _____ _____    ______ ____
ROOT
ATOM      1  C   UNL     1      -1.340  -1.292   0.091  1.00  0.00    +0.000 C 
ATOM      2  O   UNL     1      -2.451  -1.458   0.987  1.00  0.00    +0.000 OA
ATOM      3  C   UNL     1      -2.465  -2.741   1.636  1.00  0.00    +0.000 C 
ATOM      4  C   UNL     1      -1.195  -2.933   2.472  1.00  0.00    +0.000 C 
ATOM      5  C   UNL     1       0.027  -2.812   1.553  1.00  0.00    +0.000 C 
ATOM      6  C   UNL     1       0.021  -1.478   0.796  1.00  0.00    +0.000 C 
ENDROOT
BRANCH   1  16
ATOM      7  C   UNL     1      -1.785   2.181   2.385  1.00  0.00    +0.000 A 
ATOM      8  C   UNL     1      -1.986   3.422   1.929  1.00  0.00    +0.000 A 
ATOM      9  C   UNL     1      -2.052   3.665   0.479  1.00  0.00    +0.000 A 
ATOM     10  O   UNL     1      -2.281   4.800   0.081  1.00  0.00    +0.000 OA
ATOM     11  C   UNL     1      -1.837   2.497  -0.411  1.00  0.00    +0.000 A 
ATOM     12  C   UNL     1      -1.812   2.610  -1.814  1.00  0.00    +0.000 A 
ATOM     13  C   UNL     1      -2.003   3.915  -2.538  1.00  0.00    +0.000 C 
ATOM     14  C   UNL     1      -1.582   1.454  -2.574  1.00  0.00    +0.000 A 
ATOM     15  C   UNL     1      -1.391   0.217  -1.960  1.00  0.00    +0.000 A 
ATOM     16  C   UNL     1      -1.464   0.071  -0.571  1.00  0.00    +0.000 A 
ATOM     17  C   UNL     1      -1.657   1.242   0.196  1.00  0.00    +0.000 A 
ATOM     18  O   UNL     1      -1.645   1.083   1.564  1.00  0.00    +0.000 OA
BRANCH  15  19
ATOM     19  O   UNL     1      -1.120  -0.825  -2.801  1.00  0.00    +0.000 OA
ATOM     20  H   UNL     1      -0.438  -1.386  -2.396  1.00  0.00    +0.000 HD
ENDBRANCH  15  19
BRANCH   7  21
ATOM     21  C   UNL     1      -1.686   1.863   3.848  1.00  0.00    +0.000 C 
BRANCH  21  23
ATOM     22  C   UNL     1      -4.160   1.181   4.168  1.00  0.00    +0.000 C 
ATOM     23  C   UNL     1      -2.702   0.805   4.243  1.00  0.00    +0.000 C 
ATOM     24  O   UNL     1      -2.353  -0.320   4.609  1.00  0.00    +0.000 OA
ENDBRANCH  21  23
ENDBRANCH   7  21
ENDBRANCH   1  16
BRANCH   4  25
ATOM     25  O   UNL     1      -1.148  -4.221   3.095  1.00  0.00    +0.000 OA
ATOM     26  H   UNL     1      -1.659  -4.158   3.924  1.00  0.00    +0.000 HD
ENDBRANCH   4  25
BRANCH   5  27
ATOM     27  O   UNL     1       1.222  -2.927   2.341  1.00  0.00    +0.000 OA
ATOM     28  H   UNL     1       1.087  -3.717   2.901  1.00  0.00    +0.000 HD
ENDBRANCH   5  27
BRANCH   3  29
ATOM     29  C   UNL     1      -3.738  -2.807   2.484  1.00  0.00    +0.000 C 
BRANCH  29  30
ATOM     30  O   UNL     1      -4.879  -2.618   1.645  1.00  0.00    +0.000 OA
ATOM     31  H   UNL     1      -4.675  -1.833   1.101  1.00  0.00    +0.000 HD
ENDBRANCH  29  30
ENDBRANCH   3  29
BRANCH   6  32
ATOM     32  O   UNL     1       1.075  -1.530  -0.198  1.00  0.00    +0.000 OA
BRANCH  32  33
ATOM     33  C   UNL     1       1.870  -0.433  -0.273  1.00  0.00    +0.000 C 
ATOM     34  O   UNL     1       1.739   0.611   0.343  1.00  0.00    +0.000 OA
BRANCH  33  35
ATOM     35  C   UNL     1       2.916  -0.703  -1.279  1.00  0.00    +0.000 C 
ATOM     36  C   UNL     1       3.753   0.278  -1.648  1.00  0.00    +0.000 C 
BRANCH  36  37
ATOM     37  C   UNL     1       4.834   0.106  -2.627  1.00  0.00    +0.000 A 
ATOM     38  C   UNL     1       6.038   0.799  -2.431  1.00  0.00    +0.000 A 
ATOM     39  C   UNL     1       7.086   0.685  -3.349  1.00  0.00    +0.000 A 
ATOM     40  C   UNL     1       6.924  -0.115  -4.474  1.00  0.00    +0.000 A 
ATOM     41  C   UNL     1       5.734  -0.796  -4.696  1.00  0.00    +0.000 A 
ATOM     42  C   UNL     1       4.688  -0.682  -3.777  1.00  0.00    +0.000 A 
BRANCH  40  43
ATOM     43  O   UNL     1       7.917  -0.255  -5.397  1.00  0.00    +0.000 OA
ATOM     44  H   UNL     1       8.679   0.277  -5.116  1.00  0.00    +0.000 HD
ENDBRANCH  40  43
ENDBRANCH  36  37
ENDBRANCH  33  35
ENDBRANCH  32  33
ENDBRANCH   6  32
TORSDOF 13
