REMARK  Name = [H][C@]3(Sc1ncn(C)c1C[C@@H](N)C(=O)O)[C@@H]5C(=O)C=C2S[C@@H]4C[C@]23c6c(N4)c...
REMARK  8 active torsions:
REMARK  status: ('A' for Active; 'I' for Inactive)
REMARK    1  A    between atoms: C_2  and  N_35
REMARK    2  A    between atoms: N_3  and  CA_32
REMARK    3  A    between atoms: OXT_7  and  C_20
REMARK    4  A    between atoms: C_13  and  C_25
REMARK    5  A    between atoms: C_13  and  CA_32
REMARK    6  A    between atoms: S_19  and  C_24
REMARK    7  A    between atoms: S_19  and  C_37
REMARK    8  A    between atoms: C_20  and  CA_32
REMARK                            x       y       z     vdW  Elec       q    Type
REMARK                         _______ _______ _______ _____ _____    ______ ____
ROOT
ATOM      1  O   UNL     1      -0.767   2.801   1.271  1.00  0.00    +0.000 OA
ATOM      2  O   UNL     1      -5.384  -0.816  -3.038  1.00  0.00    +0.000 OA
ATOM      3  C   UNL     1      -0.254   1.775  -0.776  1.00  0.00    +0.000 C 
ATOM      4  C   UNL     1      -6.598   0.268   1.008  1.00  0.00    +0.000 A 
ATOM      5  C   UNL     1      -4.631   0.583   2.767  1.00  0.00    +0.000 C 
ATOM      6  C   UNL     1      -3.144   1.027   2.590  1.00  0.00    +0.000 C 
ATOM      7  C   UNL     1      -0.518  -1.690  -1.962  1.00  0.00    +0.000 C 
ATOM      8  N   UNL     1      -2.528  -1.136  -3.173  1.00  0.00    +0.000 N 
ATOM      9  N   UNL     1      -6.585  -0.082  -0.338  1.00  0.00    +0.000 N 
ATOM     10  S   UNL     1      -0.409   0.602  -3.240  1.00  0.00    +0.000 S 
ATOM     11  C   UNL     1      -0.587   1.738   0.677  1.00  0.00    +0.000 C 
ATOM     12  C   UNL     1      -0.472   0.669  -1.494  1.00  0.00    +0.000 C 
ATOM     13  C   UNL     1      -5.297   0.316   1.458  1.00  0.00    +0.000 A 
ATOM     14  C   UNL     1      -3.203  -0.802  -2.000  1.00  0.00    +0.000 C 
ATOM     15  C   UNL     1      -2.485  -0.558  -0.875  1.00  0.00    +0.000 C 
ATOM     16  C   UNL     1      -4.733  -0.642  -2.017  1.00  0.00    +0.000 C 
ATOM     17  C   UNL     1      -3.092  -0.053   0.386  1.00  0.00    +0.000 C 
ATOM     18  C   UNL     1      -5.284  -0.269  -0.737  1.00  0.00    +0.000 A 
ATOM     19  C   UNL     1      -4.508  -0.013   0.357  1.00  0.00    +0.000 A 
ATOM     20  C   UNL     1      -1.071  -1.124  -3.279  1.00  0.00    +0.000 C 
ATOM     21  C   UNL     1      -0.906   0.391   1.351  1.00  0.00    +0.000 C 
ATOM     22  N   UNL     1      -2.426   0.357   1.413  1.00  0.00    +0.000 N 
ATOM     23  C   UNL     1      -0.453  -0.848   0.537  1.00  0.00    +0.000 C 
ATOM     24  C   UNL     1      -0.956  -0.645  -0.910  1.00  0.00    +0.000 C 
ATOM     25  H   UNL     1      -3.059  -0.958  -4.030  1.00  0.00    +0.000 HD
ATOM     26  H   UNL     1      -7.402  -0.193  -0.931  1.00  0.00    +0.000 HD
ENDROOT
BRANCH  23  27
ATOM     27  S   UNL     1       1.278  -1.419   0.713  1.00  0.00    +0.000 S 
BRANCH  27  31
ATOM     28  C   UNL     1       4.739   2.510   0.181  1.00  0.00    +0.000 C 
ATOM     29  C   UNL     1       2.777   1.945   1.581  1.00  0.00    +0.000 A 
ATOM     30  N   UNL     1       1.870   1.006   1.735  1.00  0.00    +0.000 NA
ATOM     31  C   UNL     1       2.202   0.044   0.830  1.00  0.00    +0.000 A 
ATOM     32  C   UNL     1       3.319   0.392   0.096  1.00  0.00    +0.000 A 
ATOM     33  N   UNL     1       3.664   1.633   0.585  1.00  0.00    +0.000 N 
BRANCH  32  34
ATOM     34  C   UNL     1       4.039  -0.349  -0.995  1.00  0.00    +0.000 C 
BRANCH  34  35
ATOM     35  CA  UNL     1       4.919  -1.498  -0.466  1.00  0.00    +0.000 C 
BRANCH  35  36
ATOM     36  N   UNL     1       5.064  -2.531  -1.523  1.00  0.00    +0.000 NA
ATOM     37  H1  UNL     1       4.241  -3.132  -1.520  1.00  0.00    +0.000 HD
ATOM     38  H2  UNL     1       5.848  -3.135  -1.252  1.00  0.00    +0.000 HD
ENDBRANCH  35  36
BRANCH  35  40
ATOM     39  O   UNL     1       6.636   0.146   0.226  1.00  0.00    +0.000 OA
ATOM     40  C   UNL     1       6.311  -0.996  -0.055  1.00  0.00    +0.000 C 
BRANCH  40  41
ATOM     41  OXT UNL     1       7.214  -2.002   0.032  1.00  0.00    +0.000 OA
ATOM     42  HXT UNL     1       8.051  -1.560   0.289  1.00  0.00    +0.000 HD
ENDBRANCH  40  41
ENDBRANCH  35  40
ENDBRANCH  34  35
ENDBRANCH  32  34
ENDBRANCH  27  31
ENDBRANCH  23  27
TORSDOF 7
