REMARK  Name = /srv/my_project/app/compsite/backup/Dave/CORINA_stuff/newPDBs/SANC00333.pdb
AUTHORGENERATED BY OPEN BABEL 2.3.2
REMARK  7 active torsions:
REMARK  status: ('A' for Active; 'I' for Inactive)
REMARK    1  A    between atoms: C_4  and  O_6
REMARK    2  A    between atoms: O_6  and  C_7
REMARK    3  A    between atoms: C_14  and  O_15
REMARK    4  A    between atoms: C_18  and  O_19
REMARK    5  A    between atoms: O_19  and  C_20
REMARK    6  A    between atoms: C_21  and  O_22
REMARK    7  A    between atoms: O_22  and  C_23
REMARK                            x       y       z     vdW  Elec       q    Type
REMARK                         _______ _______ _______ _____ _____    ______ ____
ROOT
ATOM      1  C   UNL     1       1.540  -0.097  -0.966  1.00  0.00    +0.000 C 
ATOM      2  C   UNL     1       3.046  -0.385  -0.851  1.00  0.00    +0.000 C 
ATOM      3  C   UNL     1       3.355  -1.092   0.477  1.00  0.00    +0.000 C 
ATOM      4  C   UNL     1       2.670  -0.423   1.640  1.00  0.00    +0.000 C 
ATOM      5  C   UNL     1       1.643   0.436   1.520  1.00  0.00    +0.000 C 
ATOM      6  C   UNL     1       1.006   0.787   0.194  1.00  0.00    +0.000 C 
ATOM      7  C   UNL     1       1.422   2.200  -0.260  1.00  0.00    +0.000 C 
ATOM      8  C   UNL     1       1.527   2.104  -1.785  1.00  0.00    +0.000 C 
ATOM      9  N   UNL     1       1.197   0.713  -2.172  1.00  0.00    +0.000 NA
ATOM     10  C   UNL     1      -0.256   0.599  -2.399  1.00  0.00    +0.000 C 
ATOM     11  C   UNL     1      -1.123   0.631  -1.147  1.00  0.00    +0.000 A 
ATOM     12  C   UNL     1      -2.522   0.576  -1.270  1.00  0.00    +0.000 A 
ATOM     13  C   UNL     1      -3.341   0.610  -0.140  1.00  0.00    +0.000 A 
ATOM     14  C   UNL     1      -2.758   0.706   1.138  1.00  0.00    +0.000 A 
ATOM     15  C   UNL     1      -1.362   0.759   1.267  1.00  0.00    +0.000 A 
ATOM     16  C   UNL     1      -0.531   0.709   0.137  1.00  0.00    +0.000 A 
ENDROOT
BRANCH   3  17
ATOM     17  O   UNL     1       2.894  -2.441   0.385  1.00  0.00    +0.000 OA
ATOM     18  C   UNL     1       3.613  -3.341   1.218  1.00  0.00    +0.000 C 
ENDBRANCH   3  17
BRANCH  10  19
ATOM     19  O   UNL     1      -0.480  -0.621  -3.077  1.00  0.00    +0.000 OA
ATOM     20  H   UNL     1       0.404  -0.824  -3.425  1.00  0.00    +0.000 HD
ENDBRANCH  10  19
BRANCH  13  21
ATOM     21  O   UNL     1      -4.714   0.567  -0.177  1.00  0.00    +0.000 OA
ATOM     22  C   UNL     1      -5.324   0.273  -1.425  1.00  0.00    +0.000 C 
ENDBRANCH  13  21
BRANCH  14  23
ATOM     23  O   UNL     1      -3.633   0.753   2.197  1.00  0.00    +0.000 OA
ATOM     24  C   UNL     1      -3.093   0.621   3.503  1.00  0.00    +0.000 C 
ENDBRANCH  14  23
TORSDOF 4
