REMARK  Name = /srv/my_project/app/compsite/backup/Dave/CORINA_stuff/newPDBs/SANC00661.pdb
AUTHORGENERATED BY OPEN BABEL 2.3.2
REMARK  5 active torsions:
REMARK  status: ('A' for Active; 'I' for Inactive)
REMARK    1  A    between atoms: C_4  and  C_5
REMARK    2  A    between atoms: C_5  and  O_6
REMARK    3  A    between atoms: O_6  and  C_7
REMARK    4  A    between atoms: C_7  and  C_8
REMARK    5  A    between atoms: C_13  and  C_14
REMARK                            x       y       z     vdW  Elec       q    Type
REMARK                         _______ _______ _______ _____ _____    ______ ____
ROOT
ATOM      1  C   UNL     1      -0.414  -1.696  -0.191  1.00  0.00    +0.000 C 
ATOM      2  C   UNL     1       0.796  -0.967  -0.711  1.00  0.00    +0.000 C 
ATOM      3  C   UNL     1       1.364   0.234  -0.476  1.00  0.00    +0.000 C 
ATOM      4  C   UNL     1       0.916   1.281   0.520  1.00  0.00    +0.000 C 
ATOM      5  C   UNL     1       0.236   2.480  -0.158  1.00  0.00    +0.000 C 
ATOM      6  C   UNL     1      -1.197   2.673   0.244  1.00  0.00    +0.000 C 
ATOM      7  C   UNL     1      -2.262   2.009  -0.244  1.00  0.00    +0.000 C 
ATOM      8  C   UNL     1      -2.233   0.895  -1.257  1.00  0.00    +0.000 C 
ATOM      9  C   UNL     1      -2.624  -0.463  -0.655  1.00  0.00    +0.000 C 
ATOM     10  C   UNL     1      -1.643  -1.003   0.402  1.00  0.00    +0.000 C 
ATOM     11  C   UNL     1      -2.156  -2.138   1.237  1.00  0.00    +0.000 C 
ATOM     12  C   UNL     1      -3.393  -2.426   1.659  1.00  0.00    +0.000 C 
ATOM     13  C   UNL     1      -1.003  -3.008   1.575  1.00  0.00    +0.000 C 
ATOM     14  O   UNL     1      -0.992  -3.911   2.390  1.00  0.00    +0.000 OA
ATOM     15  O   UNL     1       0.050  -2.604   0.819  1.00  0.00    +0.000 OA
ENDROOT
BRANCH   7  16
ATOM     16  C   UNL     1      -3.612   2.420   0.252  1.00  0.00    +0.000 C 
ATOM     17  O   UNL     1      -3.792   3.162   1.209  1.00  0.00    +0.000 OA
ENDBRANCH   7  16
BRANCH   3  18
ATOM     18  C   UNL     1       2.637   0.599  -1.226  1.00  0.00    +0.000 C 
BRANCH  18  19
ATOM     19  O   UNL     1       3.746   0.504  -0.325  1.00  0.00    +0.000 OA
BRANCH  19  20
ATOM     20  C   UNL     1       4.506  -0.618  -0.444  1.00  0.00    +0.000 C 
ATOM     21  C   UNL     1       5.587  -0.612   0.593  1.00  0.00    +0.000 C 
ATOM     22  O   UNL     1       4.350  -1.506  -1.270  1.00  0.00    +0.000 OA
ENDBRANCH  19  20
ENDBRANCH  18  19
ENDBRANCH   3  18
TORSDOF 4
