REMARK  Name = /srv/my_project/app/compsite/backup/Dave/CORINA_stuff/newPDBs/SANC00112.pdb
AUTHORGENERATED BY OPEN BABEL 2.3.2
REMARK  8 active torsions:
REMARK  status: ('A' for Active; 'I' for Inactive)
REMARK    1  A    between atoms: C_3  and  O_5
REMARK    2  A    between atoms: N_8  and  O_9
REMARK    3  A    between atoms: C_12  and  C_14
REMARK    4  A    between atoms: C_14  and  O_15
REMARK    5  A    between atoms: O_15  and  C_16
REMARK    6  A    between atoms: C_16  and  C_18
REMARK    7  A    between atoms: C_18  and  C_19
REMARK    8  A    between atoms: C_20  and  C_21
REMARK                            x       y       z     vdW  Elec       q    Type
REMARK                         _______ _______ _______ _____ _____    ______ ____
ROOT
ATOM      1  C   UNL     1      -1.770  -0.734  -0.352  1.00  0.00    +0.000 C 
ATOM      2  C   UNL     1      -2.622   0.089  -1.345  1.00  0.00    +0.000 C 
ATOM      3  C   UNL     1      -4.045  -0.249  -0.938  1.00  0.00    +0.000 C 
ATOM      4  C   UNL     1      -3.992  -0.151   0.578  1.00  0.00    +0.000 C 
ATOM      5  N   UNL     1      -2.654  -0.791   0.938  1.00  0.00    +0.000 N 
ATOM      6  C   UNL     1      -1.885  -0.044   2.036  1.00  0.00    +0.000 C 
ATOM      7  C   UNL     1      -0.807   0.732   1.305  1.00  0.00    +0.000 C 
ATOM      8  C   UNL     1      -0.438  -0.186   0.144  1.00  0.00    +0.000 C 
ENDROOT
BRANCH   2   9
ATOM      9  O   UNL     1      -2.437   1.491  -1.199  1.00  0.00    +0.000 OA
ATOM     10  H   UNL     1      -2.838   1.938  -1.971  1.00  0.00    +0.000 HD
ENDBRANCH   2   9
BRANCH   5  11
ATOM     11  O   UNL     1      -2.842  -2.173   1.375  1.00  0.00    +0.000 OA
ATOM     12  H   UNL     1      -3.320  -2.643   0.662  1.00  0.00    +0.000 HD
ENDBRANCH   5  11
BRANCH   8  13
ATOM     13  C   UNL     1       0.417   0.489  -0.924  1.00  0.00    +0.000 C 
BRANCH  13  14
ATOM     14  O   UNL     1       1.777   0.596  -0.476  1.00  0.00    +0.000 OA
BRANCH  14  15
ATOM     15  C   UNL     1       2.528  -0.522  -0.660  1.00  0.00    +0.000 C 
ATOM     16  O   UNL     1       2.094  -1.594  -1.058  1.00  0.00    +0.000 OA
BRANCH  15  17
ATOM     17  C   UNL     1       3.923  -0.316  -0.193  1.00  0.00    +0.000 C 
ATOM     18  C   UNL     1       4.502  -1.496   0.532  1.00  0.00    +0.000 C 
ATOM     19  C   UNL     1       4.634   0.809  -0.406  1.00  0.00    +0.000 C 
ATOM     20  C   UNL     1       4.238   2.021  -1.189  1.00  0.00    +0.000 C 
ENDBRANCH  15  17
ENDBRANCH  14  15
ENDBRANCH  13  14
ENDBRANCH   8  13
TORSDOF 6
