REMARK  Name = /srv/my_project/app/compsite/backup/Dave/CORINA_stuff/newPDBs/SANC00269.pdb
AUTHORGENERATED BY OPEN BABEL 2.3.2
REMARK  7 active torsions:
REMARK  status: ('A' for Active; 'I' for Inactive)
REMARK    1  A    between atoms: C_2  and  O_3
REMARK    2  A    between atoms: C_2  and  C_4
REMARK    3  A    between atoms: N_13  and  C1*_14
REMARK    4  A    between atoms: C4*_17  and  C5*_19
REMARK    5  A    between atoms: C5*_19  and  O5*_20
REMARK    6  A    between atoms: C3*_21  and  O3*_23
REMARK    7  A    between atoms: C2*_24  and  O2*_26
REMARK                            x       y       z     vdW  Elec       q    Type
REMARK                         _______ _______ _______ _____ _____    ______ ____
ROOT
ATOM      1  C   UNL     1       0.757   0.649   0.450  1.00  0.00    +0.000 A 
ATOM      2  C   UNL     1       2.117   0.477   0.679  1.00  0.00    +0.000 A 
ATOM      3  C   UNL     1       2.954   1.066   1.720  1.00  0.00    +0.000 C 
ATOM      4  O   UNL     1       2.533   1.708   2.675  1.00  0.00    +0.000 OA
ATOM      5  N   UNL     1       4.303   0.794   1.579  1.00  0.00    +0.000 N 
ATOM      6  C   UNL     1       4.883   0.305   0.331  1.00  0.00    +0.000 C 
ATOM      7  C   UNL     1       4.053  -0.815  -0.324  1.00  0.00    +0.000 C 
ATOM      8  C   UNL     1       2.614  -0.435  -0.293  1.00  0.00    +0.000 A 
ATOM      9  C   UNL     1       1.553  -0.829  -1.068  1.00  0.00    +0.000 A 
ATOM     10  N   UNL     1       0.418  -0.186  -0.602  1.00  0.00    +0.000 N 
ATOM     11  H   UNL     1       4.885   1.300   2.235  1.00  0.00    +0.000 HD
ENDROOT
BRANCH  10  12
ATOM     12  C1* UNL     1      -0.883  -0.386  -1.244  1.00  0.00    +0.000 C 
ATOM     13  O4* UNL     1      -1.792   0.704  -0.959  1.00  0.00    +0.000 OA
ATOM     14  C4* UNL     1      -3.088   0.099  -0.769  1.00  0.00    +0.000 C 
ATOM     15  C3* UNL     1      -2.787  -1.216  -0.059  1.00  0.00    +0.000 C 
ATOM     16  C2* UNL     1      -1.572  -1.698  -0.835  1.00  0.00    +0.000 C 
BRANCH  15  17
ATOM     17  O3* UNL     1      -3.851  -2.160  -0.132  1.00  0.00    +0.000 OA
ATOM     18  H3* UNL     1      -4.522  -1.863   0.513  1.00  0.00    +0.000 HD
ENDBRANCH  15  17
BRANCH  16  19
ATOM     19  O2* UNL     1      -2.005  -2.429  -1.997  1.00  0.00    +0.000 OA
ATOM     20  H2* UNL     1      -2.801  -2.920  -1.699  1.00  0.00    +0.000 HD
ENDBRANCH  16  19
BRANCH  14  21
ATOM     21  C5* UNL     1      -4.040   1.031  -0.021  1.00  0.00    +0.000 C 
BRANCH  21  22
ATOM     22  O5* UNL     1      -3.829   1.020   1.386  1.00  0.00    +0.000 OA
ATOM     23  H5* UNL     1      -2.881   1.230   1.542  1.00  0.00    +0.000 HD
ENDBRANCH  21  22
ENDBRANCH  14  21
ENDBRANCH  10  12
BRANCH   1  25
ATOM     24  O   UNL     1      -1.193   1.222   1.703  1.00  0.00    +0.000 OA
ATOM     25  C   UNL     1      -0.133   1.514   1.167  1.00  0.00    +0.000 C 
BRANCH  25  26
ATOM     26  O   UNL     1       0.328   2.780   1.168  1.00  0.00    +0.000 OA
ATOM     27  H   UNL     1      -0.289   3.264   1.749  1.00  0.00    +0.000 HD
ENDBRANCH  25  26
ENDBRANCH   1  25
TORSDOF 7
