REMARK  Name = /srv/my_project/app/compsite/backup/Dave/CORINA_stuff/newPDBs/SANC00627.pdb
AUTHORGENERATED BY OPEN BABEL 2.3.2
REMARK  9 active torsions:
REMARK  status: ('A' for Active; 'I' for Inactive)
REMARK    1  A    between atoms: C_1  and  C_2
REMARK    2  A    between atoms: C_2  and  C_23
REMARK    3  A    between atoms: C_3  and  C_4
REMARK    4  A    between atoms: C_4  and  O_5
REMARK    5  A    between atoms: O_5  and  C_6
REMARK    6  A    between atoms: C_11  and  O_12
REMARK    7  A    between atoms: O_12  and  C_13
REMARK    8  A    between atoms: C_17  and  O_18
REMARK    9  A    between atoms: O_18  and  C_19
REMARK                            x       y       z     vdW  Elec       q    Type
REMARK                         _______ _______ _______ _____ _____    ______ ____
ROOT
ATOM      1  C   UNL     1      -0.334  -0.231   0.925  1.00  0.00    +0.000 A 
ATOM      2  C   UNL     1       0.490   0.170  -0.127  1.00  0.00    +0.000 A 
ATOM      3  C   UNL     1       1.892   0.005  -0.060  1.00  0.00    +0.000 A 
ATOM      4  C   UNL     1       2.472  -0.583   1.085  1.00  0.00    +0.000 A 
ATOM      5  C   UNL     1       1.637  -0.970   2.123  1.00  0.00    +0.000 A 
ATOM      6  C   UNL     1       0.247  -0.804   2.066  1.00  0.00    +0.000 A 
ATOM      7  N   UNL     1       3.783  -0.797   1.246  1.00  0.00    +0.000 NA
ATOM      8  C   UNL     1       4.548  -0.433   0.207  1.00  0.00    +0.000 A 
ATOM      9  C   UNL     1       4.128   0.157  -0.978  1.00  0.00    +0.000 A 
ATOM     10  C   UNL     1       2.755   0.412  -1.101  1.00  0.00    +0.000 A 
ATOM     11  C   UNL     1       5.295   0.332  -1.768  1.00  0.00    +0.000 A 
ATOM     12  C   UNL     1       6.343  -0.145  -1.015  1.00  0.00    +0.000 A 
ATOM     13  O   UNL     1       5.900  -0.606   0.183  1.00  0.00    +0.000 OA
ENDROOT
BRANCH   6  14
ATOM     14  O   UNL     1      -0.619  -1.168   3.067  1.00  0.00    +0.000 OA
ATOM     15  C   UNL     1      -0.073  -1.793   4.220  1.00  0.00    +0.000 C 
ENDBRANCH   6  14
BRANCH  10  16
ATOM     16  O   UNL     1       2.233   0.973  -2.249  1.00  0.00    +0.000 OA
ATOM     17  C   UNL     1       2.428   2.389  -2.233  1.00  0.00    +0.000 C 
ENDBRANCH  10  16
BRANCH   1  18
ATOM     18  O   UNL     1      -1.700  -0.104   0.940  1.00  0.00    +0.000 OA
BRANCH  18  19
ATOM     19  C   UNL     1      -2.337   0.422  -0.223  1.00  0.00    +0.000 C 
BRANCH  19  22
ATOM     20  C   UNL     1      -4.681  -0.550  -2.094  1.00  0.00    +0.000 C 
ATOM     21  C   UNL     1      -4.827   0.045  -0.721  1.00  0.00    +0.000 C 
ATOM     22  C   UNL     1      -3.811   0.466   0.058  1.00  0.00    +0.000 C 
ATOM     23  C   UNL     1      -6.252   0.149  -0.242  1.00  0.00    +0.000 C 
ENDBRANCH  19  22
ENDBRANCH  18  19
ENDBRANCH   1  18
TORSDOF 5
