REMARK  Name = /srv/my_project/app/compsite/backup/Dave/CORINA_stuff/newPDBs/SANC00147.pdb
AUTHORGENERATED BY OPEN BABEL 2.3.2
REMARK  6 active torsions:
REMARK  status: ('A' for Active; 'I' for Inactive)
REMARK    1  A    between atoms: C_2  and  C_3
REMARK    2  A    between atoms: C_5  and  O_7
REMARK    3  A    between atoms: O_7  and  C_8
REMARK    4  A    between atoms: C_8  and  C_9
REMARK    5  A    between atoms: C_22  and  C_23
REMARK    6  A    between atoms: C_27  and  C_28
REMARK                            x       y       z     vdW  Elec       q    Type
REMARK                         _______ _______ _______ _____ _____    ______ ____
ROOT
ATOM      1  C   UNL     1      -2.592  -1.339  -0.840  1.00  0.00    +0.000 C 
ATOM      2  C   UNL     1      -3.187   0.111  -0.825  1.00  0.00    +0.000 C 
ATOM      3  C   UNL     1      -1.977   1.053  -0.605  1.00  0.00    +0.000 C 
ATOM      4  C   UNL     1      -0.757   0.136  -0.644  1.00  0.00    +0.000 C 
ATOM      5  C   UNL     1       0.555   0.618  -0.012  1.00  0.00    +0.000 C 
ATOM      6  C   UNL     1       0.973   1.985  -0.571  1.00  0.00    +0.000 C 
ATOM      7  C   UNL     1       2.338   2.431  -0.056  1.00  0.00    +0.000 C 
ATOM      8  C   UNL     1       3.398   1.362  -0.335  1.00  0.00    +0.000 C 
ATOM      9  C   UNL     1       4.801   1.855   0.030  1.00  0.00    +0.000 C 
ATOM     10  C   UNL     1       5.839   0.810  -0.315  1.00  0.00    +0.000 C 
ATOM     11  O   UNL     1       7.015   1.101  -0.521  1.00  0.00    +0.000 OA
ATOM     12  C   UNL     1       5.427  -0.615  -0.348  1.00  0.00    +0.000 C 
ATOM     13  C   UNL     1       4.173  -0.984  -0.048  1.00  0.00    +0.000 C 
ATOM     14  C   UNL     1       3.053  -0.016   0.319  1.00  0.00    +0.000 C 
ATOM     15  C   UNL     1       3.028   0.053   1.864  1.00  0.00    +0.000 C 
ATOM     16  C   UNL     1       1.658  -0.467  -0.258  1.00  0.00    +0.000 C 
ATOM     17  C   UNL     1       1.183  -1.871   0.207  1.00  0.00    +0.000 C 
ATOM     18  C   UNL     1      -0.205  -2.265  -0.331  1.00  0.00    +0.000 C 
ATOM     19  C   UNL     1      -1.265  -1.190  -0.037  1.00  0.00    +0.000 C 
ATOM     20  C   UNL     1      -1.533  -1.133   1.488  1.00  0.00    +0.000 C 
ENDROOT
BRANCH   1  22
ATOM     21  C   UNL     1      -4.801  -2.559  -0.464  1.00  0.00    +0.000 C 
ATOM     22  C   UNL     1      -3.462  -2.516  -0.467  1.00  0.00    +0.000 C 
ENDBRANCH   1  22
BRANCH   2  23
ATOM     23  O   UNL     1      -4.116   0.295   0.258  1.00  0.00    +0.000 OA
BRANCH  23  24
ATOM     24  C   UNL     1      -4.925   1.384   0.162  1.00  0.00    +0.000 C 
ATOM     25  C   UNL     1      -5.841   1.443   1.345  1.00  0.00    +0.000 C 
ATOM     26  O   UNL     1      -4.914   2.202  -0.747  1.00  0.00    +0.000 OA
ENDBRANCH  23  24
ENDBRANCH   2  23
TORSDOF 3
