REMARK  Name = /srv/my_project/app/compsite/backup/Dave/CORINA_stuff/newPDBs/SANC00367.pdb
AUTHORGENERATED BY OPEN BABEL 2.3.2
REMARK  11 active torsions:
REMARK  status: ('A' for Active; 'I' for Inactive)
REMARK    1  A    between atoms: C_1  and  C_2
REMARK    2  A    between atoms: C_2  and  C_3
REMARK    3  A    between atoms: C_2  and  C_4
REMARK    4  A    between atoms: C_10  and  C_11
REMARK    5  A    between atoms: C_10  and  C_12
REMARK    6  A    between atoms: C_14  and  O_16
REMARK    7  A    between atoms: O_16  and  C_17
REMARK    8  A    between atoms: C_17  and  C_19
REMARK    9  A    between atoms: C_22  and  O_23
REMARK   10  A    between atoms: C_27  and  C_28
REMARK   11  A    between atoms: C_30  and  O_31
REMARK                            x       y       z     vdW  Elec       q    Type
REMARK                         _______ _______ _______ _____ _____    ______ ____
ROOT
ATOM      1  C   UNL     1      -4.412   0.968   1.000  1.00  0.00    +0.000 C 
ATOM      2  C   UNL     1      -4.242  -0.349   0.801  1.00  0.00    +0.000 C 
ATOM      3  C   UNL     1      -2.998  -0.911   0.298  1.00  0.00    +0.000 C 
ATOM      4  C   UNL     1      -2.886  -2.246   0.247  1.00  0.00    +0.000 C 
ATOM      5  C   UNL     1      -1.681  -2.917  -0.143  1.00  0.00    +0.000 C 
ATOM      6  C   UNL     1      -0.608  -2.275  -0.644  1.00  0.00    +0.000 C 
ATOM      7  C   UNL     1       0.699  -3.050  -0.958  1.00  0.00    +0.000 C 
ATOM      8  C   UNL     1       0.824  -3.343  -2.468  1.00  0.00    +0.000 C 
ATOM      9  C   UNL     1       0.781  -4.436  -0.254  1.00  0.00    +0.000 C 
ATOM     10  C   UNL     1       1.920  -2.260  -0.448  1.00  0.00    +0.000 C 
ATOM     11  C   UNL     1       1.925  -0.803  -0.881  1.00  0.00    +0.000 C 
ATOM     12  C   UNL     1       0.663  -0.098  -0.384  1.00  0.00    +0.000 C 
ATOM     13  C   UNL     1      -0.669  -0.727  -0.873  1.00  0.00    +0.000 C 
ATOM     14  C   UNL     1      -0.879  -0.443  -2.381  1.00  0.00    +0.000 C 
ATOM     15  C   UNL     1      -1.893  -0.053  -0.152  1.00  0.00    +0.000 C 
ATOM     16  C   UNL     1      -2.044   1.280   0.029  1.00  0.00    +0.000 C 
ATOM     17  C   UNL     1      -3.276   1.865   0.657  1.00  0.00    +0.000 C 
ATOM     18  O   UNL     1      -3.306   3.082   0.835  1.00  0.00    +0.000 OA
ENDROOT
BRANCH   1  20
ATOM     19  C   UNL     1      -6.383   2.490   0.551  1.00  0.00    +0.000 C 
ATOM     20  C   UNL     1      -5.699   1.550   1.546  1.00  0.00    +0.000 C 
ATOM     21  C   UNL     1      -5.505   2.225   2.905  1.00  0.00    +0.000 C 
ENDBRANCH   1  20
BRANCH  16  22
ATOM     22  O   UNL     1      -1.111   2.212  -0.389  1.00  0.00    +0.000 OA
ATOM     23  H   UNL     1      -1.486   3.081  -0.128  1.00  0.00    +0.000 HD
ENDBRANCH  16  22
BRANCH  11  24
ATOM     24  O   UNL     1       3.080  -0.188  -0.268  1.00  0.00    +0.000 OA
BRANCH  24  25
ATOM     25  C   UNL     1       3.612   0.874  -0.922  1.00  0.00    +0.000 C 
ATOM     26  O   UNL     1       3.225   1.330  -1.986  1.00  0.00    +0.000 OA
BRANCH  25  27
ATOM     27  C   UNL     1       4.767   1.427  -0.163  1.00  0.00    +0.000 A 
ATOM     28  C   UNL     1       5.462   2.514  -0.713  1.00  0.00    +0.000 A 
ATOM     29  C   UNL     1       6.551   3.067  -0.038  1.00  0.00    +0.000 A 
ATOM     30  C   UNL     1       6.945   2.537   1.185  1.00  0.00    +0.000 A 
ATOM     31  C   UNL     1       6.268   1.460   1.749  1.00  0.00    +0.000 A 
ATOM     32  C   UNL     1       5.176   0.904   1.074  1.00  0.00    +0.000 A 
BRANCH  30  33
ATOM     33  O   UNL     1       8.013   3.109   1.809  1.00  0.00    +0.000 OA
ATOM     34  H   UNL     1       8.170   2.648   2.649  1.00  0.00    +0.000 HD
ENDBRANCH  30  33
ENDBRANCH  25  27
ENDBRANCH  24  25
ENDBRANCH  11  24
TORSDOF 6
