REMARK  Name = /srv/my_project/app/compsite/backup/Dave/CORINA_stuff/newPDBs/SANC00131.pdb
AUTHORGENERATED BY OPEN BABEL 2.3.2
REMARK  0 active torsions:
REMARK  status: ('A' for Active; 'I' for Inactive)
REMARK                            x       y       z     vdW  Elec       q    Type
REMARK                         _______ _______ _______ _____ _____    ______ ____
ROOT
ATOM      1  O   UNL     1      -2.873   3.773   0.538  1.00  0.00    +0.000 OA
ATOM      2  C   UNL     1      -2.594   2.672   0.080  1.00  0.00    +0.000 C 
ATOM      3  C   UNL     1      -1.859   2.539  -1.205  1.00  0.00    +0.000 C 
ATOM      4  C   UNL     1      -1.448   1.342  -1.655  1.00  0.00    +0.000 C 
ATOM      5  C   UNL     1      -1.657   0.063  -0.880  1.00  0.00    +0.000 C 
ATOM      6  C   UNL     1      -2.433  -0.959  -1.748  1.00  0.00    +0.000 C 
ATOM      7  C   UNL     1      -2.723  -2.109  -0.778  1.00  0.00    +0.000 C 
ATOM      8  N   UNL     1      -1.446  -2.713  -0.457  1.00  0.00    +0.000 N 
ATOM      9  C   UNL     1      -0.330  -1.924  -0.154  1.00  0.00    +0.000 C 
ATOM     10  C   UNL     1      -0.359  -0.572  -0.336  1.00  0.00    +0.000 C 
ATOM     11  C   UNL     1       0.783   0.299   0.114  1.00  0.00    +0.000 C 
ATOM     12  N   UNL     1       0.827   1.585   0.142  1.00  0.00    +0.000 NA
ATOM     13  C   UNL     1       1.993   2.271   0.777  1.00  0.00    +0.000 C 
ATOM     14  C   UNL     1       3.364   1.560   0.657  1.00  0.00    +0.000 C 
ATOM     15  C   UNL     1       3.183   0.104   0.850  1.00  0.00    +0.000 A 
ATOM     16  C   UNL     1       3.994  -0.938   1.243  1.00  0.00    +0.000 A 
ATOM     17  N   UNL     1       3.244  -2.100   1.180  1.00  0.00    +0.000 N 
ATOM     18  H   UNL     1       3.571  -3.033   1.402  1.00  0.00    +0.000 HD
ATOM     19  C   UNL     1       1.985  -1.795   0.729  1.00  0.00    +0.000 A 
ATOM     20  C   UNL     1       0.873  -2.648   0.455  1.00  0.00    +0.000 C 
ATOM     21  O   UNL     1       0.849  -3.855   0.672  1.00  0.00    +0.000 OA
ATOM     22  C   UNL     1       1.929  -0.443   0.557  1.00  0.00    +0.000 A 
ATOM     23  S   UNL     1      -3.427  -1.266   0.702  1.00  0.00    +0.000 S 
ATOM     24  C   UNL     1      -2.653   0.248   0.262  1.00  0.00    +0.000 C 
ATOM     25  C   UNL     1      -3.063   1.429   0.737  1.00  0.00    +0.000 C 
ATOM     26  H   UNL     1      -1.474  -3.575   0.092  1.00  0.00    +0.000 HD
ENDROOT
TORSDOF 0
