REMARK  Name = /srv/my_project/app/compsite/backup/Dave/CORINA_stuff/newPDBs/SANC00530.pdb
AUTHORGENERATED BY OPEN BABEL 2.3.2
REMARK  17 active torsions:
REMARK  status: ('A' for Active; 'I' for Inactive)
REMARK    1  A    between atoms: C_1  and  O_2
REMARK    2  A    between atoms: O_2  and  C_3
REMARK    3  A    between atoms: C_3  and  C_4
REMARK    4  A    between atoms: C_4  and  C_5
REMARK    5  A    between atoms: C_5  and  C_6
REMARK    6  A    between atoms: C_6  and  C_7
REMARK    7  A    between atoms: C_6  and  C_8
REMARK    8  A    between atoms: C_11  and  O_12
REMARK    9  A    between atoms: C_11  and  C_13
REMARK   10  A    between atoms: C_13  and  C_15
REMARK   11  A    between atoms: C_16  and  C_17
REMARK   12  A    between atoms: C_25  and  C_26
REMARK   13  A    between atoms: C_26  and  C_27
REMARK   14  A    between atoms: C_27  and  C_28
REMARK   15  A    between atoms: C_28  and  C_29
REMARK   16  A    between atoms: C_28  and  C_30
REMARK   17  A    between atoms: C_31  and  O_32
REMARK                            x       y       z     vdW  Elec       q    Type
REMARK                         _______ _______ _______ _____ _____    ______ ____
ROOT
ATOM      1  C   UNL     1      -1.168  -0.302   0.911  1.00  0.00    +0.000 C 
ATOM      2  C   UNL     1       0.003   0.099   1.855  1.00  0.00    +0.000 C 
ATOM      3  O   UNL     1       0.140  -0.404   2.975  1.00  0.00    +0.000 OA
ATOM      4  C   UNL     1       1.013   1.094   1.300  1.00  0.00    +0.000 C 
ATOM      5  C   UNL     1       0.271   2.281   0.707  1.00  0.00    +0.000 C 
ATOM      6  O   UNL     1       0.665   3.433   0.911  1.00  0.00    +0.000 OA
ATOM      7  C   UNL     1      -0.945   2.035  -0.127  1.00  0.00    +0.000 C 
ATOM      8  C   UNL     1      -1.568   0.842  -0.034  1.00  0.00    +0.000 C 
ENDROOT
BRANCH   1  10
ATOM      9  C   UNL     1      -2.915   0.232   2.515  1.00  0.00    +0.000 C 
ATOM     10  O   UNL     1      -2.301  -0.741   1.680  1.00  0.00    +0.000 OA
ENDBRANCH   1  10
BRANCH   4  11
ATOM     11  O   UNL     1       1.864   1.614   2.340  1.00  0.00    +0.000 OA
ATOM     12  H   UNL     1       1.940   2.580   2.186  1.00  0.00    +0.000 HD
ENDBRANCH   4  11
BRANCH   4  13
ATOM     13  C   UNL     1       1.921   0.432   0.266  1.00  0.00    +0.000 C 
ATOM     14  O   UNL     1       1.829   0.676  -0.937  1.00  0.00    +0.000 OA
BRANCH  13  15
ATOM     15  C   UNL     1       2.890  -0.592   0.766  1.00  0.00    +0.000 C 
ATOM     16  C   UNL     1       3.569  -1.359  -0.100  1.00  0.00    +0.000 C 
BRANCH  16  17
ATOM     17  C   UNL     1       4.500  -2.420   0.305  1.00  0.00    +0.000 A 
ATOM     18  C   UNL     1       4.589  -3.575  -0.484  1.00  0.00    +0.000 A 
ATOM     19  C   UNL     1       5.477  -4.600  -0.148  1.00  0.00    +0.000 A 
ATOM     20  C   UNL     1       6.293  -4.477   0.974  1.00  0.00    +0.000 A 
ATOM     21  C   UNL     1       6.225  -3.327   1.757  1.00  0.00    +0.000 A 
ATOM     22  C   UNL     1       5.337  -2.301   1.422  1.00  0.00    +0.000 A 
ENDBRANCH  16  17
ENDBRANCH  13  15
ENDBRANCH   4  13
BRANCH   8  23
ATOM     23  O   UNL     1      -2.709   0.566  -0.777  1.00  0.00    +0.000 OA
ATOM     24  H   UNL     1      -3.005   1.338  -1.284  1.00  0.00    +0.000 HD
ENDBRANCH   8  23
BRANCH   1  25
ATOM     25  C   UNL     1      -0.669  -1.539   0.104  1.00  0.00    +0.000 C 
BRANCH  25  26
ATOM     26  C   UNL     1      -1.763  -2.473  -0.441  1.00  0.00    +0.000 C 
BRANCH  26  27
ATOM     27  C   UNL     1      -1.215  -3.559  -1.389  1.00  0.00    +0.000 C 
ATOM     28  C   UNL     1      -0.213  -4.490  -0.703  1.00  0.00    +0.000 C 
ATOM     29  C   UNL     1      -2.374  -4.379  -1.962  1.00  0.00    +0.000 C 
ENDBRANCH  26  27
ENDBRANCH  25  26
ENDBRANCH   1  25
BRANCH   7  30
ATOM     30  C   UNL     1      -1.344   3.179  -1.031  1.00  0.00    +0.000 C 
BRANCH  30  31
ATOM     31  C   UNL     1      -2.337   4.124  -0.344  1.00  0.00    +0.000 C 
BRANCH  31  32
ATOM     32  C   UNL     1      -2.865   5.235  -1.272  1.00  0.00    +0.000 C 
ATOM     33  C   UNL     1      -3.961   6.030  -0.557  1.00  0.00    +0.000 C 
ATOM     34  C   UNL     1      -1.759   6.184  -1.734  1.00  0.00    +0.000 C 
ENDBRANCH  31  32
ENDBRANCH  30  31
ENDBRANCH   7  30
TORSDOF 12
