REMARK  Name = /srv/my_project/app/compsite/backup/Dave/CORINA_stuff/newPDBs/SANC00382.pdb
AUTHORGENERATED BY OPEN BABEL 2.3.2
REMARK  3 active torsions:
REMARK  status: ('A' for Active; 'I' for Inactive)
REMARK    1  A    between atoms: C_12  and  O_13
REMARK    2  A    between atoms: C_14  and  O_15
REMARK    3  A    between atoms: O_15  and  C_16
REMARK                            x       y       z     vdW  Elec       q    Type
REMARK                         _______ _______ _______ _____ _____    ______ ____
ROOT
ATOM      1  C   UNL     1      -0.844   1.758   0.696  1.00  0.00    +0.000 C 
ATOM      2  C   UNL     1      -2.045   1.071   0.030  1.00  0.00    +0.000 C 
ATOM      3  C   UNL     1      -1.713  -0.466   0.039  1.00  0.00    +0.000 C 
ATOM      4  C   UNL     1      -2.397  -1.122  -1.141  1.00  0.00    +0.000 C 
ATOM      5  C   UNL     1      -3.275  -2.131  -1.043  1.00  0.00    +0.000 C 
ATOM      6  C   UNL     1      -3.647  -2.688   0.275  1.00  0.00    +0.000 C 
ATOM      7  O   UNL     1      -4.472  -3.588   0.377  1.00  0.00    +0.000 OA
ATOM      8  C   UNL     1      -2.994  -2.108   1.470  1.00  0.00    +0.000 C 
ATOM      9  C   UNL     1      -2.119  -1.098   1.358  1.00  0.00    +0.000 C 
ATOM     10  C   UNL     1      -0.204  -0.411  -0.098  1.00  0.00    +0.000 A 
ATOM     11  C   UNL     1       0.719  -1.366  -0.470  1.00  0.00    +0.000 A 
ATOM     12  C   UNL     1       2.083  -1.026  -0.585  1.00  0.00    +0.000 A 
ATOM     13  C   UNL     1       2.505   0.293  -0.334  1.00  0.00    +0.000 A 
ATOM     14  C   UNL     1       1.578   1.260   0.068  1.00  0.00    +0.000 A 
ATOM     15  C   UNL     1       1.902   2.723   0.229  1.00  0.00    +0.000 C 
ATOM     16  C   UNL     1       0.731   3.547   0.828  1.00  0.00    +0.000 C 
ATOM     17  N   UNL     1      -0.601   3.151   0.324  1.00  0.00    +0.000 NA
ATOM     18  C   UNL     1       0.255   0.870   0.209  1.00  0.00    +0.000 A 
ATOM     19  H   UNL     1      -1.316   3.741   0.747  1.00  0.00    +0.000 HD
ENDROOT
BRANCH  11  20
ATOM     20  O   UNL     1       0.314  -2.643  -0.736  1.00  0.00    +0.000 OA
ATOM     21  H   UNL     1       1.129  -3.123  -0.977  1.00  0.00    +0.000 HD
ENDBRANCH  11  20
BRANCH  12  22
ATOM     22  O   UNL     1       2.895  -2.066  -0.971  1.00  0.00    +0.000 OA
ATOM     23  C   UNL     1       4.285  -1.783  -1.081  1.00  0.00    +0.000 C 
ENDBRANCH  12  22
TORSDOF 2
