REMARK  Name = SANCDB_00736_minRM1.pdb
AUTHORGENERATED BY OPEN BABEL 2.3.2
REMARK  15 active torsions:
REMARK  status: ('A' for Active; 'I' for Inactive)
REMARK    1  A    between atoms: C_1  and  C_2
REMARK    2  A    between atoms: C_2  and  C_11
REMARK    3  A    between atoms: C_3  and  C_4
REMARK    4  A    between atoms: C_4  and  C_5
REMARK    5  A    between atoms: C_5  and  C_6
REMARK    6  A    between atoms: C_11  and  C_12
REMARK    7  A    between atoms: C_12  and  C_13
REMARK    8  A    between atoms: C_14  and  C_15
REMARK    9  A    between atoms: C_14  and  C_16
REMARK   10  A    between atoms: C_16  and  C_17
REMARK   11  A    between atoms: C_17  and  C_18
REMARK   12  A    between atoms: C_18  and  C_19
REMARK   13  A    between atoms: C_19  and  C_20
REMARK   14  A    between atoms: C_19  and  C_21
REMARK   15  A    between atoms: C_24  and  C_25
REMARK                            x       y       z     vdW  Elec       q    Type
REMARK                         _______ _______ _______ _____ _____    ______ ____
ROOT
ATOM      1  C   UNL     1       0.920  -0.668  -0.750  1.00  0.00    +0.000 C 
ATOM      2  C   UNL     1      -0.314  -0.714  -0.209  1.00  0.00    +0.000 C 
ATOM      3  C   UNL     1      -0.727  -1.670   0.878  1.00  0.00    +0.000 C 
ENDROOT
BRANCH   1   4
ATOM      4  C   UNL     1       2.086  -1.570  -0.446  1.00  0.00    +0.000 C 
BRANCH   4   5
ATOM      5  C   UNL     1       3.044  -1.019   0.620  1.00  0.00    +0.000 C 
BRANCH   5   7
ATOM      6  C   UNL     1       3.258   1.524   0.391  1.00  0.00    +0.000 C 
ATOM      7  C   UNL     1       3.877   0.170   0.170  1.00  0.00    +0.000 C 
ATOM      8  C   UNL     1       5.113  -0.025  -0.333  1.00  0.00    +0.000 C 
BRANCH   8   9
ATOM      9  C   UNL     1       6.074   1.020  -0.842  1.00  0.00    +0.000 C 
BRANCH   9  10
ATOM     10  C   UNL     1       7.184   1.357   0.159  1.00  0.00    +0.000 C 
BRANCH  10  11
ATOM     11  C   UNL     1       8.147   0.239   0.390  1.00  0.00    +0.000 A 
ATOM     12  C   UNL     1       8.155  -0.684   1.474  1.00  0.00    +0.000 A 
ATOM     13  C   UNL     1       9.221  -1.526   1.262  1.00  0.00    +0.000 A 
ATOM     14  O   UNL     1       9.874  -1.186   0.123  1.00  0.00    +0.000 OA
ATOM     15  C   UNL     1       9.222  -0.117  -0.400  1.00  0.00    +0.000 A 
ENDBRANCH  10  11
ENDBRANCH   9  10
ENDBRANCH   8   9
ENDBRANCH   5   7
ENDBRANCH   4   5
ENDBRANCH   1   4
BRANCH   2  16
ATOM     16  C   UNL     1      -1.382   0.267  -0.656  1.00  0.00    +0.000 C 
BRANCH  16  17
ATOM     17  C   UNL     1      -2.497  -0.413  -1.456  1.00  0.00    +0.000 C 
BRANCH  17  18
ATOM     18  C   UNL     1      -3.507   0.577  -2.054  1.00  0.00    +0.000 C 
BRANCH  18  19
ATOM     19  C   UNL     1      -4.287   1.444  -1.043  1.00  0.00    +0.000 C 
ATOM     20  C   UNL     1      -5.143   2.467  -1.800  1.00  0.00    +0.000 C 
BRANCH  19  21
ATOM     21  C   UNL     1      -5.037   0.593  -0.037  1.00  0.00    +0.000 C 
ATOM     22  C   UNL     1      -6.335   0.264  -0.013  1.00  0.00    +0.000 C 
ATOM     23  C   UNL     1      -6.964  -0.540   0.979  1.00  0.00    +0.000 C 
ATOM     24  C   UNL     1      -8.250  -0.672   0.678  1.00  0.00    +0.000 C 
ATOM     25  C   UNL     1      -9.339  -1.394   1.365  1.00  0.00    +0.000 C 
ATOM     26  C   UNL     1      -8.444   0.084  -0.566  1.00  0.00    +0.000 C 
ATOM     27  O   UNL     1      -9.509   0.193  -1.149  1.00  0.00    +0.000 OA
ATOM     28  O   UNL     1      -7.260   0.644  -0.970  1.00  0.00    +0.000 OA
ENDBRANCH  19  21
ENDBRANCH  18  19
ENDBRANCH  17  18
ENDBRANCH  16  17
ENDBRANCH   2  16
TORSDOF 11
