REMARK  Name = SANCDB_00769_minRM1.pdb
AUTHORGENERATED BY OPEN BABEL 2.3.2
REMARK  7 active torsions:
REMARK  status: ('A' for Active; 'I' for Inactive)
REMARK    1  A    between atoms: C_1  and  C_2
REMARK    2  A    between atoms: C_2  and  C_3
REMARK    3  A    between atoms: C_2  and  O_26
REMARK    4  A    between atoms: C_3  and  O_4
REMARK    5  A    between atoms: C_6  and  C_7
REMARK    6  A    between atoms: C_8  and  C_9
REMARK    7  A    between atoms: C_8  and  O_10
REMARK                            x       y       z     vdW  Elec       q    Type
REMARK                         _______ _______ _______ _____ _____    ______ ____
ROOT
ATOM      1  C   UNL     1      -1.740   1.554  -0.146  1.00  0.00    +0.000 C 
ATOM      2  C   UNL     1      -2.546   0.414  -0.840  1.00  0.00    +0.000 C 
ATOM      3  C   UNL     1      -1.928  -1.013  -0.848  1.00  0.00    +0.000 C 
ATOM      4  C   UNL     1      -2.587  -1.834  -1.973  1.00  0.00    +0.000 C 
ATOM      5  C   UNL     1      -1.915  -1.791   0.512  1.00  0.00    +0.000 C 
ATOM      6  C   UNL     1      -3.194  -2.578   0.803  1.00  0.00    +0.000 C 
ATOM      7  C   UNL     1      -0.690  -2.741   0.468  1.00  0.00    +0.000 C 
ATOM      8  O   UNL     1      -0.723  -3.934   0.202  1.00  0.00    +0.000 OA
ATOM      9  O   UNL     1       0.445  -2.024   0.718  1.00  0.00    +0.000 OA
ATOM     10  C   UNL     1       1.663  -2.679   0.378  1.00  0.00    +0.000 C 
ATOM     11  C   UNL     1       2.726  -1.655   0.147  1.00  0.00    +0.000 C 
ATOM     12  C   UNL     1       4.043  -1.897   0.136  1.00  0.00    +0.000 C 
ATOM     13  C   UNL     1       4.809  -0.706  -0.320  1.00  0.00    +0.000 C 
ATOM     14  N   UNL     1       3.813   0.364  -0.497  1.00  0.00    +0.000 NA
ATOM     15  C   UNL     1       2.453  -0.233  -0.265  1.00  0.00    +0.000 C 
ATOM     16  C   UNL     1       1.798   0.676   0.801  1.00  0.00    +0.000 C 
ATOM     17  O   UNL     1       0.378   0.898   0.742  1.00  0.00    +0.000 OA
ATOM     18  C   UNL     1      -0.219   1.380  -0.381  1.00  0.00    +0.000 C 
ATOM     19  O   UNL     1       0.349   1.613  -1.438  1.00  0.00    +0.000 OA
ATOM     20  C   UNL     1       2.594   1.969   0.725  1.00  0.00    +0.000 C 
ATOM     21  C   UNL     1       3.994   1.449   0.479  1.00  0.00    +0.000 C 
ENDROOT
BRANCH   1  23
ATOM     22  C   UNL     1      -1.464   4.125  -0.064  1.00  0.00    +0.000 C 
ATOM     23  C   UNL     1      -2.158   2.936  -0.729  1.00  0.00    +0.000 C 
BRANCH  23  24
ATOM     24  O   UNL     1      -3.572   3.120  -0.537  1.00  0.00    +0.000 OA
ATOM     25  H   UNL     1      -3.728   2.897   0.404  1.00  0.00    +0.000 HD
ENDBRANCH  23  24
ENDBRANCH   1  23
BRANCH   1  26
ATOM     26  O   UNL     1      -2.129   1.597   1.236  1.00  0.00    +0.000 OA
ATOM     27  H   UNL     1      -1.874   0.720   1.598  1.00  0.00    +0.000 HD
ENDBRANCH   1  26
BRANCH   5  28
ATOM     28  O   UNL     1      -1.759  -0.875   1.606  1.00  0.00    +0.000 OA
ATOM     29  H   UNL     1      -1.611  -1.411   2.410  1.00  0.00    +0.000 HD
ENDBRANCH   5  28
TORSDOF 4
