REMARK  Name = SANCDB_00758_minRM1.pdb
AUTHORGENERATED BY OPEN BABEL 2.3.2
REMARK  3 active torsions:
REMARK  status: ('A' for Active; 'I' for Inactive)
REMARK    1  A    between atoms: C_1  and  O_2
REMARK    2  A    between atoms: O_2  and  C_3
REMARK    3  A    between atoms: C_13  and  O_14
REMARK                            x       y       z     vdW  Elec       q    Type
REMARK                         _______ _______ _______ _____ _____    ______ ____
ROOT
ATOM      1  C   UNL     1      -1.461   0.331  -0.179  1.00  0.00    +0.000 A 
ATOM      2  C   UNL     1      -0.667  -0.790   0.048  1.00  0.00    +0.000 A 
ATOM      3  C   UNL     1       0.718  -0.628   0.152  1.00  0.00    +0.000 A 
ATOM      4  O   UNL     1       1.483  -1.790   0.382  1.00  0.00    +0.000 OA
ATOM      5  C   UNL     1       2.865  -1.731   0.499  1.00  0.00    +0.000 A 
ATOM      6  O   UNL     1       3.550  -2.728   0.699  1.00  0.00    +0.000 OA
ATOM      7  C   UNL     1       3.490  -0.402   0.374  1.00  0.00    +0.000 A 
ATOM      8  C   UNL     1       2.778   0.708   0.156  1.00  0.00    +0.000 A 
ATOM      9  C   UNL     1       1.332   0.620   0.036  1.00  0.00    +0.000 A 
ATOM     10  C   UNL     1       0.538   1.741  -0.190  1.00  0.00    +0.000 A 
ATOM     11  C   UNL     1      -0.843   1.584  -0.295  1.00  0.00    +0.000 A 
ENDROOT
BRANCH   1  13
ATOM     12  C   UNL     1      -3.488  -0.911  -0.193  1.00  0.00    +0.000 C 
ATOM     13  O   UNL     1      -2.826   0.345  -0.305  1.00  0.00    +0.000 OA
ENDBRANCH   1  13
BRANCH  11  14
ATOM     14  O   UNL     1      -1.599   2.704  -0.518  1.00  0.00    +0.000 OA
ATOM     15  H   UNL     1      -2.522   2.383  -0.558  1.00  0.00    +0.000 HD
ENDBRANCH  11  14
TORSDOF 2
