REMARK  Name = SANCDB_00764_minRM1.pdb
AUTHORGENERATED BY OPEN BABEL 2.3.2
REMARK  12 active torsions:
REMARK  status: ('A' for Active; 'I' for Inactive)
REMARK    1  A    between atoms: C_1  and  C_2
REMARK    2  A    between atoms: C_2  and  C_3
REMARK    3  A    between atoms: C_3  and  C_4
REMARK    4  A    between atoms: C_4  and  C_5
REMARK    5  A    between atoms: C_5  and  C_6
REMARK    6  A    between atoms: C_6  and  C_7
REMARK    7  A    between atoms: C_7  and  C_8
REMARK    8  A    between atoms: C_8  and  C_9
REMARK    9  A    between atoms: C_10  and  C_11
REMARK   10  A    between atoms: C_12  and  C_13
REMARK   11  A    between atoms: C_13  and  N_14
REMARK   12  A    between atoms: C_13  and  C_15
REMARK                            x       y       z     vdW  Elec       q    Type
REMARK                         _______ _______ _______ _____ _____    ______ ____
ROOT
ATOM      1  C   UNL     1       1.705   0.907   1.417  1.00  0.00    +0.000 C 
ATOM      2  C   UNL     1       2.608   1.117   0.447  1.00  0.00    +0.000 C 
ENDROOT
BRANCH   2   3
ATOM      3  C   UNL     1       3.839   0.369   0.347  1.00  0.00    +0.000 C 
ATOM      4  C   UNL     1       4.738   0.575  -0.628  1.00  0.00    +0.000 C 
BRANCH   4   5
ATOM      5  C   UNL     1       6.023  -0.187  -0.760  1.00  0.00    +0.000 C 
ATOM      6  C   UNL     1       6.037  -1.008  -2.047  1.00  0.00    +0.000 C 
BRANCH   5   7
ATOM      7  N   UNL     1       7.130   0.765  -0.775  1.00  0.00    +0.000 NA
ATOM      8  H   UNL     1       8.010   0.257  -0.843  1.00  0.00    +0.000 HD
ATOM      9  H   UNL     1       7.153   1.254   0.119  1.00  0.00    +0.000 HD
ENDBRANCH   5   7
ENDBRANCH   4   5
ENDBRANCH   2   3
BRANCH   1  10
ATOM     10  C   UNL     1       0.420   1.677   1.541  1.00  0.00    +0.000 C 
BRANCH  10  11
ATOM     11  C   UNL     1      -0.824   0.786   1.462  1.00  0.00    +0.000 C 
BRANCH  11  12
ATOM     12  C   UNL     1      -1.026   0.162   0.077  1.00  0.00    +0.000 C 
BRANCH  12  13
ATOM     13  C   UNL     1      -2.243  -0.765  -0.001  1.00  0.00    +0.000 C 
BRANCH  13  14
ATOM     14  C   UNL     1      -3.578  -0.034   0.162  1.00  0.00    +0.000 C 
BRANCH  14  15
ATOM     15  C   UNL     1      -4.759  -0.986  -0.044  1.00  0.00    +0.000 C 
BRANCH  15  17
ATOM     16  C   UNL     1      -7.269  -1.201  -0.083  1.00  0.00    +0.000 C 
ATOM     17  C   UNL     1      -6.094  -0.259   0.121  1.00  0.00    +0.000 C 
ENDBRANCH  15  17
ENDBRANCH  14  15
ENDBRANCH  13  14
ENDBRANCH  12  13
ENDBRANCH  11  12
ENDBRANCH  10  11
ENDBRANCH   1  10
TORSDOF 10
