REMARK  Name = SANCDB_00940_minRM1.pdb
AUTHORGENERATED BY OPEN BABEL 2.3.2
REMARK  14 active torsions:
REMARK  status: ('A' for Active; 'I' for Inactive)
REMARK    1  A    between atoms: C_1  and  C_2
REMARK    2  A    between atoms: C_2  and  C_32
REMARK    3  A    between atoms: C_3  and  C_4
REMARK    4  A    between atoms: C_4  and  C_5
REMARK    5  A    between atoms: C_6  and  O_30
REMARK    6  A    between atoms: C_7  and  C_24
REMARK    7  A    between atoms: C_9  and  C_11
REMARK    8  A    between atoms: C_16  and  O_23
REMARK    9  A    between atoms: C_18  and  O_22
REMARK   10  A    between atoms: C_25  and  C_26
REMARK   11  A    between atoms: C_26  and  C_27
REMARK   12  A    between atoms: C_26  and  C_28
REMARK   13  A    between atoms: C_26  and  O_29
REMARK   14  A    between atoms: O_30  and  C_31
REMARK                            x       y       z     vdW  Elec       q    Type
REMARK                         _______ _______ _______ _____ _____    ______ ____
ROOT
ATOM      1  C   UNL     1      -1.359   1.031  -0.170  1.00  0.00    +0.000 A 
ATOM      2  C   UNL     1      -2.088  -0.166  -0.054  1.00  0.00    +0.000 A 
ATOM      3  C   UNL     1      -1.467  -1.351   0.386  1.00  0.00    +0.000 A 
ATOM      4  C   UNL     1      -0.085  -1.342   0.628  1.00  0.00    +0.000 A 
ATOM      5  C   UNL     1       0.675  -0.172   0.478  1.00  0.00    +0.000 A 
ATOM      6  C   UNL     1       0.021   1.008   0.093  1.00  0.00    +0.000 A 
ENDROOT
BRANCH   5   7
ATOM      7  C   UNL     1       2.162  -0.186   0.779  1.00  0.00    +0.000 C 
ATOM      8  C   UNL     1       2.432   0.361   2.174  1.00  0.00    +0.000 C 
ATOM      9  C   UNL     1       3.913   0.308   2.414  1.00  0.00    +0.000 C 
ATOM     10  O   UNL     1       4.405   0.148   3.528  1.00  0.00    +0.000 OA
ATOM     11  C   UNL     1       4.786   0.527   1.246  1.00  0.00    +0.000 A 
ATOM     12  C   UNL     1       6.176   0.621   1.376  1.00  0.00    +0.000 A 
ATOM     13  C   UNL     1       6.964   0.880   0.259  1.00  0.00    +0.000 A 
ATOM     14  C   UNL     1       6.359   1.054  -0.983  1.00  0.00    +0.000 A 
ATOM     15  C   UNL     1       4.977   0.962  -1.127  1.00  0.00    +0.000 A 
ATOM     16  C   UNL     1       4.191   0.680  -0.009  1.00  0.00    +0.000 A 
ATOM     17  O   UNL     1       2.840   0.594  -0.221  1.00  0.00    +0.000 OA
BRANCH  14  18
ATOM     18  O   UNL     1       7.166   1.317  -2.050  1.00  0.00    +0.000 OA
ATOM     19  H   UNL     1       6.619   1.427  -2.845  1.00  0.00    +0.000 HD
ENDBRANCH  14  18
BRANCH  12  20
ATOM     20  O   UNL     1       6.823   0.477   2.573  1.00  0.00    +0.000 OA
ATOM     21  H   UNL     1       6.149   0.318   3.272  1.00  0.00    +0.000 HD
ENDBRANCH  12  20
ENDBRANCH   5   7
BRANCH   3  22
ATOM     22  C   UNL     1      -2.176  -2.624   0.601  1.00  0.00    +0.000 C 
ATOM     23  C   UNL     1      -3.269  -2.726   1.376  1.00  0.00    +0.000 C 
BRANCH  23  24
ATOM     24  C   UNL     1      -4.076  -3.967   1.667  1.00  0.00    +0.000 C 
ATOM     25  C   UNL     1      -5.517  -3.772   1.190  1.00  0.00    +0.000 C 
ATOM     26  C   UNL     1      -3.512  -5.270   1.092  1.00  0.00    +0.000 C 
BRANCH  24  27
ATOM     27  O   UNL     1      -4.114  -4.108   3.089  1.00  0.00    +0.000 OA
ATOM     28  H   UNL     1      -3.194  -4.077   3.403  1.00  0.00    +0.000 HD
ENDBRANCH  24  27
ENDBRANCH  23  24
ENDBRANCH   3  22
BRANCH   2  29
ATOM     29  O   UNL     1      -3.437  -0.134  -0.318  1.00  0.00    +0.000 OA
ATOM     30  C   UNL     1      -3.703  -0.637  -1.628  1.00  0.00    +0.000 C 
ENDBRANCH   2  29
BRANCH   1  31
ATOM     31  C   UNL     1      -2.008   2.340  -0.565  1.00  0.00    +0.000 C 
BRANCH  31  34
ATOM     32  C   UNL     1      -0.665   4.073  -3.827  1.00  0.00    +0.000 C 
ATOM     33  C   UNL     1      -0.890   3.801  -2.361  1.00  0.00    +0.000 C 
ATOM     34  C   UNL     1      -1.650   2.760  -1.968  1.00  0.00    +0.000 C 
ATOM     35  C   UNL     1      -0.198   4.771  -1.444  1.00  0.00    +0.000 C 
ENDBRANCH  31  34
ENDBRANCH   1  31
TORSDOF 9
