REMARK  Name = /srv/my_project/app/compsite/backup/Dave/CORINA_stuff/newPDBs/SANC00247.pdb
AUTHORGENERATED BY OPEN BABEL 2.3.2
REMARK  18 active torsions:
REMARK  status: ('A' for Active; 'I' for Inactive)
REMARK    1  A    between atoms: C_1  and  C_2
REMARK    2  A    between atoms: C_2  and  C_3
REMARK    3  A    between atoms: C_4  and  C_5
REMARK    4  A    between atoms: C_5  and  C_6
REMARK    5  A    between atoms: C_6  and  C_7
REMARK    6  A    between atoms: C_7  and  C_29
REMARK    7  A    between atoms: C_8  and  C_9
REMARK    8  A    between atoms: C_9  and  C_10
REMARK    9  A    between atoms: C_10  and  C_11
REMARK   10  A    between atoms: C_11  and  C_12
REMARK   11  A    between atoms: C_13  and  C_14
REMARK   12  A    between atoms: C_14  and  C_15
REMARK   13  A    between atoms: C_15  and  C_16
REMARK   14  A    between atoms: C_16  and  C_17
REMARK   15  A    between atoms: C_18  and  C_19
REMARK   16  A    between atoms: C_19  and  C_20
REMARK   17  A    between atoms: C_25  and  C_26
REMARK   18  A    between atoms: C_29  and  O_31
REMARK                            x       y       z     vdW  Elec       q    Type
REMARK                         _______ _______ _______ _____ _____    ______ ____
ROOT
ATOM      1  C   UNL     1       0.517   0.540  -1.425  1.00  0.00    +0.000 C 
ATOM      2  C   UNL     1      -0.005  -0.749  -1.997  1.00  0.00    +0.000 C 
ATOM      3  C   UNL     1      -0.243   1.498  -0.855  1.00  0.00    +0.000 C 
ENDROOT
BRANCH   1   4
ATOM      4  C   UNL     1       2.019   0.733  -1.532  1.00  0.00    +0.000 C 
BRANCH   4   5
ATOM      5  C   UNL     1       2.785  -0.017  -0.437  1.00  0.00    +0.000 C 
BRANCH   5   7
ATOM      6  C   UNL     1       5.058   1.038   0.146  1.00  0.00    +0.000 C 
ATOM      7  C   UNL     1       4.271   0.194  -0.554  1.00  0.00    +0.000 C 
BRANCH   6   8
ATOM      8  C   UNL     1       4.481   2.010   1.109  1.00  0.00    +0.000 C 
ATOM      9  O   UNL     1       3.343   2.441   1.131  1.00  0.00    +0.000 OA
BRANCH   8  10
ATOM     10  O   UNL     1       5.386   2.427   2.009  1.00  0.00    +0.000 OA
ATOM     11  H   UNL     1       4.877   3.051   2.566  1.00  0.00    +0.000 HD
ENDBRANCH   8  10
ENDBRANCH   6   8
BRANCH   6  12
ATOM     12  C   UNL     1       6.551   1.093  -0.097  1.00  0.00    +0.000 C 
BRANCH  12  13
ATOM     13  C   UNL     1       7.388   0.271   0.895  1.00  0.00    +0.000 C 
BRANCH  13  17
ATOM     14  C   UNL     1       7.572  -3.568   0.100  1.00  0.00    +0.000 C 
ATOM     15  C   UNL     1       7.920  -2.103   0.091  1.00  0.00    +0.000 C 
ATOM     16  C   UNL     1       9.132  -1.758  -0.730  1.00  0.00    +0.000 C 
ATOM     17  C   UNL     1       7.168  -1.215   0.770  1.00  0.00    +0.000 C 
ENDBRANCH  13  17
ENDBRANCH  12  13
ENDBRANCH   6  12
ENDBRANCH   5   7
ENDBRANCH   4   5
ENDBRANCH   1   4
BRANCH   3  18
ATOM     18  C   UNL     1      -1.738   1.516  -0.688  1.00  0.00    +0.000 C 
BRANCH  18  19
ATOM     19  C   UNL     1      -2.141   1.199   0.760  1.00  0.00    +0.000 C 
BRANCH  19  20
ATOM     20  C   UNL     1      -3.627   1.206   1.101  1.00  0.00    +0.000 C 
ATOM     21  C   UNL     1      -3.891   0.867   2.549  1.00  0.00    +0.000 C 
ATOM     22  C   UNL     1      -4.605   1.472   0.209  1.00  0.00    +0.000 C 
BRANCH  22  23
ATOM     23  C   UNL     1      -6.092   1.534   0.461  1.00  0.00    +0.000 C 
BRANCH  23  24
ATOM     24  C   UNL     1      -6.854   0.282   0.094  1.00  0.00    +0.000 C 
ATOM     25  C   UNL     1      -6.318  -0.875  -0.324  1.00  0.00    +0.000 C 
ATOM     26  C   UNL     1      -7.137  -2.051  -0.660  1.00  0.00    +0.000 C 
ATOM     27  O   UNL     1      -6.626  -3.095  -1.043  1.00  0.00    +0.000 OA
ATOM     28  C   UNL     1      -8.596  -1.925  -0.519  1.00  0.00    +0.000 C 
ATOM     29  C   UNL     1      -9.170  -0.790  -0.102  1.00  0.00    +0.000 C 
ATOM     30  C   UNL     1     -10.650  -0.633   0.051  1.00  0.00    +0.000 C 
ATOM     31  C   UNL     1      -8.336   0.397   0.235  1.00  0.00    +0.000 C 
ATOM     32  O   UNL     1      -8.857   1.439   0.620  1.00  0.00    +0.000 OA
ENDBRANCH  23  24
ENDBRANCH  22  23
ENDBRANCH  19  20
ENDBRANCH  18  19
ENDBRANCH   3  18
TORSDOF 13
