REMARK  Name = /srv/my_project/app/compsite/backup/Dave/CORINA_stuff/newPDBs/SANC00264.pdb
AUTHORGENERATED BY OPEN BABEL 2.3.2
REMARK  7 active torsions:
REMARK  status: ('A' for Active; 'I' for Inactive)
REMARK    1  A    between atoms: C_4  and  C_6
REMARK    2  A    between atoms: C_10  and  C_11
REMARK    3  A    between atoms: C_14  and  C_15
REMARK    4  A    between atoms: C_20  and  C_21
REMARK    5  A    between atoms: C_22  and  O_23
REMARK    6  A    between atoms: C_28  and  C_29
REMARK    7  A    between atoms: C_32  and  C_33
REMARK                            x       y       z     vdW  Elec       q    Type
REMARK                         _______ _______ _______ _____ _____    ______ ____
ROOT
ATOM      1  C   UNL     1      -2.612   0.105   0.509  1.00  0.00    +0.000 C 
ATOM      2  C   UNL     1      -3.622  -0.977   0.030  1.00  0.00    +0.000 C 
ATOM      3  C   UNL     1      -4.102  -0.865  -1.421  1.00  0.00    +0.000 C 
ATOM      4  C   UNL     1      -5.210  -1.882  -1.693  1.00  0.00    +0.000 C 
ATOM      5  C   UNL     1      -4.567   0.550  -1.705  1.00  0.00    +0.000 C 
ATOM      6  O   UNL     1      -5.626   0.801  -2.279  1.00  0.00    +0.000 OA
ATOM      7  C   UNL     1      -3.606   1.655  -1.338  1.00  0.00    +0.000 C 
ATOM      8  C   UNL     1      -3.117   1.550   0.124  1.00  0.00    +0.000 C 
ATOM      9  C   UNL     1      -4.336   1.910   1.027  1.00  0.00    +0.000 C 
ATOM     10  C   UNL     1      -2.062   2.658   0.364  1.00  0.00    +0.000 C 
ATOM     11  C   UNL     1      -0.608   2.272   0.100  1.00  0.00    +0.000 C 
ATOM     12  C   UNL     1      -0.164   0.947   0.796  1.00  0.00    +0.000 C 
ATOM     13  C   UNL     1      -0.343   1.186   2.326  1.00  0.00    +0.000 C 
ATOM     14  C   UNL     1       1.341   0.594   0.571  1.00  0.00    +0.000 C 
ATOM     15  C   UNL     1       2.198   1.462  -0.001  1.00  0.00    +0.000 C 
ATOM     16  C   UNL     1       3.586   1.160  -0.235  1.00  0.00    +0.000 C 
ATOM     17  C   UNL     1       4.103  -0.078  -0.144  1.00  0.00    +0.000 C 
ATOM     18  C   UNL     1       5.522  -0.347  -0.466  1.00  0.00    +0.000 C 
ATOM     19  C   UNL     1       6.477   0.822  -0.495  1.00  0.00    +0.000 C 
ATOM     20  C   UNL     1       5.917  -1.620  -0.695  1.00  0.00    +0.000 C 
ATOM     21  C   UNL     1       4.934  -2.744  -0.537  1.00  0.00    +0.000 C 
ATOM     22  O   UNL     1       5.194  -3.901  -0.854  1.00  0.00    +0.000 OA
ATOM     23  C   UNL     1       3.621  -2.432   0.069  1.00  0.00    +0.000 C 
ATOM     24  C   UNL     1       3.213  -1.167   0.286  1.00  0.00    +0.000 C 
ATOM     25  C   UNL     1       1.866  -0.809   0.996  1.00  0.00    +0.000 C 
ATOM     26  C   UNL     1       2.206  -0.827   2.510  1.00  0.00    +0.000 C 
ATOM     27  C   UNL     1       0.810  -1.911   0.695  1.00  0.00    +0.000 C 
ATOM     28  C   UNL     1      -0.657  -1.536   0.929  1.00  0.00    +0.000 C 
ATOM     29  C   UNL     1      -1.078  -0.212   0.222  1.00  0.00    +0.000 C 
ATOM     30  C   UNL     1      -0.825  -0.424  -1.299  1.00  0.00    +0.000 C 
ENDROOT
BRANCH  20  31
ATOM     31  O   UNL     1       7.200  -1.979  -1.069  1.00  0.00    +0.000 OA
ATOM     32  H   UNL     1       7.666  -1.207  -1.421  1.00  0.00    +0.000 HD
ENDBRANCH  20  31
TORSDOF 1
