REMARK  Name = SANCDB_00774_minRM1.pdb
AUTHORGENERATED BY OPEN BABEL 2.3.2
REMARK  5 active torsions:
REMARK  status: ('A' for Active; 'I' for Inactive)
REMARK    1  A    between atoms: C_1  and  C_2
REMARK    2  A    between atoms: C_5  and  C_6
REMARK    3  A    between atoms: C_7  and  C_8
REMARK    4  A    between atoms: C_7  and  O_9
REMARK    5  A    between atoms: N_17  and  C_26
REMARK                            x       y       z     vdW  Elec       q    Type
REMARK                         _______ _______ _______ _____ _____    ______ ____
ROOT
ATOM      1  C   UNL     1      -3.648   2.002  -1.839  1.00  0.00    +0.000 C 
ATOM      2  C   UNL     1      -2.231   2.124  -1.381  1.00  0.00    +0.000 C 
ATOM      3  C   UNL     1      -1.719   1.838  -0.167  1.00  0.00    +0.000 C 
ATOM      4  C   UNL     1      -2.483   1.346   1.037  1.00  0.00    +0.000 C 
ATOM      5  C   UNL     1      -2.337  -0.146   1.474  1.00  0.00    +0.000 C 
ATOM      6  C   UNL     1      -3.119  -0.289   2.797  1.00  0.00    +0.000 C 
ATOM      7  C   UNL     1      -2.791  -1.197   0.414  1.00  0.00    +0.000 C 
ATOM      8  C   UNL     1      -3.061  -2.591   1.005  1.00  0.00    +0.000 C 
ATOM      9  C   UNL     1      -1.742  -1.422  -0.704  1.00  0.00    +0.000 C 
ATOM     10  O   UNL     1      -2.026  -1.334  -1.894  1.00  0.00    +0.000 OA
ATOM     11  O   UNL     1      -0.542  -1.827  -0.204  1.00  0.00    +0.000 OA
ATOM     12  C   UNL     1       0.481  -2.172  -1.161  1.00  0.00    +0.000 C 
ATOM     13  C   UNL     1       1.734  -1.439  -0.782  1.00  0.00    +0.000 C 
ATOM     14  C   UNL     1       2.902  -1.980  -0.396  1.00  0.00    +0.000 C 
ATOM     15  C   UNL     1       4.216  -1.357   0.011  1.00  0.00    +0.000 C 
ATOM     16  N   UNL     1       4.495   0.049  -0.193  1.00  0.00    +0.000 NA
ATOM     17  C   UNL     1       4.074   1.034   0.791  1.00  0.00    +0.000 C 
ATOM     18  C   UNL     1       2.732   1.743   0.563  1.00  0.00    +0.000 C 
ATOM     19  C   UNL     1       1.591   0.743   0.519  1.00  0.00    +0.000 C 
ATOM     20  O   UNL     1       0.281   1.245   0.825  1.00  0.00    +0.000 OA
ATOM     21  C   UNL     1      -0.264   2.154  -0.011  1.00  0.00    +0.000 C 
ATOM     22  O   UNL     1       0.333   3.045  -0.591  1.00  0.00    +0.000 OA
ATOM     23  C   UNL     1       1.556   0.025  -0.826  1.00  0.00    +0.000 C 
ATOM     24  O   UNL     1       1.279   0.557  -1.898  1.00  0.00    +0.000 OA
ATOM     25  C   UNL     1       4.720   0.504  -1.549  1.00  0.00    +0.000 C 
ENDROOT
BRANCH   7  26
ATOM     26  O   UNL     1      -4.039  -0.770  -0.149  1.00  0.00    +0.000 OA
ATOM     27  H   UNL     1      -3.995  -0.972  -1.107  1.00  0.00    +0.000 HD
ENDBRANCH   7  26
TORSDOF 1
