REMARK  Name = /srv/my_project/app/compsite/backup/Dave/CORINA_stuff/newPDBs/SANC00156.pdb
AUTHORGENERATED BY OPEN BABEL 2.3.2
REMARK  15 active torsions:
REMARK  status: ('A' for Active; 'I' for Inactive)
REMARK    1  A    between atoms: C_5  and  C_6
REMARK    2  A    between atoms: C_14  and  O_16
REMARK    3  A    between atoms: O_16  and  C_17
REMARK    4  A    between atoms: C_17  and  C_18
REMARK    5  A    between atoms: C_22  and  C_23
REMARK    6  A    between atoms: C_23  and  C_24
REMARK    7  A    between atoms: C_23  and  O_33
REMARK    8  A    between atoms: C_24  and  C_25
REMARK    9  A    between atoms: C_25  and  O_26
REMARK   10  A    between atoms: C_25  and  C_30
REMARK   11  A    between atoms: O_26  and  C_27
REMARK   12  A    between atoms: C_27  and  C_28
REMARK   13  A    between atoms: C_30  and  C_32
REMARK   14  A    between atoms: O_33  and  C_34
REMARK   15  A    between atoms: C_34  and  C_35
REMARK                            x       y       z     vdW  Elec       q    Type
REMARK                         _______ _______ _______ _____ _____    ______ ____
ROOT
ATOM      1  C   UNL     1      -0.627   0.577  -0.463  1.00  0.00    +0.000 C 
ATOM      2  C   UNL     1      -0.576   2.126  -0.616  1.00  0.00    +0.000 C 
ATOM      3  C   UNL     1      -0.205   2.854   0.689  1.00  0.00    +0.000 C 
ATOM      4  C   UNL     1      -1.407   3.317   1.487  1.00  0.00    +0.000 C 
ATOM      5  C   UNL     1      -1.800   4.755   1.266  1.00  0.00    +0.000 C 
ATOM      6  C   UNL     1      -2.117   2.538   2.328  1.00  0.00    +0.000 C 
ATOM      7  C   UNL     1      -1.882   1.083   2.617  1.00  0.00    +0.000 C 
ATOM      8  C   UNL     1      -2.807   0.131   1.836  1.00  0.00    +0.000 C 
ATOM      9  C   UNL     1      -3.074   0.471   0.376  1.00  0.00    +0.000 C 
ATOM     10  C   UNL     1      -4.215   1.099   0.033  1.00  0.00    +0.000 C 
ATOM     11  C   UNL     1      -2.071   0.052  -0.708  1.00  0.00    +0.000 C 
ATOM     12  C   UNL     1      -2.037  -1.476  -0.957  1.00  0.00    +0.000 C 
ATOM     13  O   UNL     1      -1.216  -1.784  -2.099  1.00  0.00    +0.000 OA
ATOM     14  C   UNL     1       0.016  -1.197  -2.093  1.00  0.00    +0.000 C 
ATOM     15  C   UNL     1       0.387  -0.145  -1.345  1.00  0.00    +0.000 C 
ENDROOT
BRANCH  12  16
ATOM     16  O   UNL     1      -3.365  -1.938  -1.266  1.00  0.00    +0.000 OA
BRANCH  16  17
ATOM     17  C   UNL     1      -3.978  -2.683  -0.315  1.00  0.00    +0.000 C 
ATOM     18  C   UNL     1      -5.349  -3.070  -0.782  1.00  0.00    +0.000 C 
ATOM     19  O   UNL     1      -3.510  -3.002   0.768  1.00  0.00    +0.000 OA
ENDBRANCH  16  17
ENDBRANCH  12  16
BRANCH  15  20
ATOM     20  C   UNL     1       1.834   0.326  -1.288  1.00  0.00    +0.000 C 
BRANCH  20  21
ATOM     21  C   UNL     1       2.861  -0.785  -0.996  1.00  0.00    +0.000 C 
BRANCH  21  22
ATOM     22  C   UNL     1       2.606  -1.557   0.312  1.00  0.00    +0.000 C 
BRANCH  22  23
ATOM     23  C   UNL     1       2.666  -0.761   1.609  1.00  0.00    +0.000 C 
ATOM     24  C   UNL     1       3.303   0.412   1.773  1.00  0.00    +0.000 C 
ATOM     25  C   UNL     1       1.947  -1.400   2.769  1.00  0.00    +0.000 C 
ENDBRANCH  22  23
BRANCH  22  26
ATOM     26  O   UNL     1       3.605  -2.592   0.450  1.00  0.00    +0.000 OA
BRANCH  26  27
ATOM     27  C   UNL     1       3.376  -3.740  -0.240  1.00  0.00    +0.000 C 
ATOM     28  C   UNL     1       4.477  -4.721   0.020  1.00  0.00    +0.000 C 
ATOM     29  O   UNL     1       2.421  -3.953  -0.973  1.00  0.00    +0.000 OA
ENDBRANCH  26  27
ENDBRANCH  22  26
ENDBRANCH  21  22
ENDBRANCH  20  21
BRANCH  20  30
ATOM     30  O   UNL     1       2.125   0.918  -2.571  1.00  0.00    +0.000 OA
BRANCH  30  31
ATOM     31  C   UNL     1       3.079   1.886  -2.578  1.00  0.00    +0.000 C 
ATOM     32  C   UNL     1       3.263   2.412  -3.968  1.00  0.00    +0.000 C 
ATOM     33  O   UNL     1       3.703   2.278  -1.602  1.00  0.00    +0.000 OA
ENDBRANCH  30  31
ENDBRANCH  20  30
ENDBRANCH  15  20
TORSDOF 10
