REMARK  Name = SANCDB_01014_minRM1.pdb
AUTHORGENERATED BY OPEN BABEL 2.3.2
REMARK  10 active torsions:
REMARK  status: ('A' for Active; 'I' for Inactive)
REMARK    1  A    between atoms: C_1  and  O_2
REMARK    2  A    between atoms: O_2  and  C_3
REMARK    3  A    between atoms: C_6  and  C_9
REMARK    4  A    between atoms: C_9  and  C_10
REMARK    5  A    between atoms: C_10  and  C_11
REMARK    6  A    between atoms: C_11  and  C_13
REMARK    7  A    between atoms: C_14  and  O_22
REMARK    8  A    between atoms: C_16  and  O_20
REMARK    9  A    between atoms: C_18  and  O_19
REMARK   10  A    between atoms: O_20  and  C_21
REMARK                            x       y       z     vdW  Elec       q    Type
REMARK                         _______ _______ _______ _____ _____    ______ ____
ROOT
ATOM      1  C   UNL     1       0.634  -0.393   0.975  1.00  0.00    +0.000 C 
ATOM      2  O   UNL     1      -0.023  -0.002   1.945  1.00  0.00    +0.000 OA
ENDROOT
BRANCH   1   3
ATOM      3  C   UNL     1       2.058   0.046   0.881  1.00  0.00    +0.000 A 
ATOM      4  C   UNL     1       2.728   0.386   2.068  1.00  0.00    +0.000 A 
ATOM      5  C   UNL     1       4.069   0.768   2.054  1.00  0.00    +0.000 A 
ATOM      6  C   UNL     1       4.770   0.843   0.852  1.00  0.00    +0.000 A 
ATOM      7  C   UNL     1       4.112   0.540  -0.341  1.00  0.00    +0.000 A 
ATOM      8  C   UNL     1       2.764   0.151  -0.325  1.00  0.00    +0.000 A 
BRANCH   8   9
ATOM      9  O   UNL     1       2.145  -0.093  -1.521  1.00  0.00    +0.000 OA
ATOM     10  H   UNL     1       2.760   0.085  -2.253  1.00  0.00    +0.000 HD
ENDBRANCH   8   9
BRANCH   6  11
ATOM     11  O   UNL     1       6.075   1.230   0.975  1.00  0.00    +0.000 OA
ATOM     12  C   UNL     1       6.849   1.311  -0.214  1.00  0.00    +0.000 C 
ENDBRANCH   6  11
BRANCH   4  13
ATOM     13  O   UNL     1       2.128   0.365   3.302  1.00  0.00    +0.000 OA
ATOM     14  H   UNL     1       1.158   0.264   3.164  1.00  0.00    +0.000 HD
ENDBRANCH   4  13
ENDBRANCH   1   3
BRANCH   1  15
ATOM     15  C   UNL     1       0.039  -1.340  -0.047  1.00  0.00    +0.000 C 
BRANCH  15  16
ATOM     16  C   UNL     1      -0.833  -0.604  -1.062  1.00  0.00    +0.000 C 
BRANCH  16  20
ATOM     17  C   UNL     1      -5.014  -0.561   0.056  1.00  0.00    +0.000 A 
ATOM     18  C   UNL     1      -4.141   0.401   0.562  1.00  0.00    +0.000 A 
ATOM     19  C   UNL     1      -2.790   0.389   0.197  1.00  0.00    +0.000 A 
ATOM     20  C   UNL     1      -2.293  -0.582  -0.680  1.00  0.00    +0.000 A 
ATOM     21  C   UNL     1      -3.173  -1.549  -1.181  1.00  0.00    +0.000 A 
ATOM     22  C   UNL     1      -4.521  -1.533  -0.817  1.00  0.00    +0.000 A 
BRANCH  17  24
ATOM     23  C   UNL     1      -6.889   0.286   1.243  1.00  0.00    +0.000 C 
ATOM     24  O   UNL     1      -6.350  -0.662   0.331  1.00  0.00    +0.000 OA
ENDBRANCH  17  24
ENDBRANCH  16  20
ENDBRANCH  15  16
ENDBRANCH   1  15
TORSDOF 8
