REMARK  Name = /srv/my_project/app/compsite/backup/Dave/CORINA_stuff/newPDBs/SANC00441.pdb
AUTHORGENERATED BY OPEN BABEL 2.3.2
REMARK  9 active torsions:
REMARK  status: ('A' for Active; 'I' for Inactive)
REMARK    1  A    between atoms: C_1  and  C_2
REMARK    2  A    between atoms: C_2  and  C_24
REMARK    3  A    between atoms: C_3  and  C_4
REMARK    4  A    between atoms: C_4  and  C_5
REMARK    5  A    between atoms: C_13  and  C_23
REMARK    6  A    between atoms: C_15  and  O_22
REMARK    7  A    between atoms: C_18  and  C_19
REMARK    8  A    between atoms: C_18  and  C_20
REMARK    9  A    between atoms: C_20  and  O_21
REMARK                            x       y       z     vdW  Elec       q    Type
REMARK                         _______ _______ _______ _____ _____    ______ ____
ROOT
ATOM      1  C   UNL     1       0.881  -0.605  -0.339  1.00  0.00    +0.000 C 
ATOM      2  C   UNL     1       1.123  -0.942  -1.815  1.00  0.00    +0.000 C 
ATOM      3  C   UNL     1       1.743  -2.031  -2.304  1.00  0.00    +0.000 C 
ATOM      4  C   UNL     1       0.546   0.083  -2.756  1.00  0.00    +0.000 C 
ATOM      5  C   UNL     1      -0.960   0.198  -2.545  1.00  0.00    +0.000 C 
ATOM      6  C   UNL     1      -1.321   0.529  -1.076  1.00  0.00    +0.000 C 
ATOM      7  C   UNL     1      -0.687  -0.507  -0.065  1.00  0.00    +0.000 C 
ATOM      8  C   UNL     1      -0.915   0.003   1.394  1.00  0.00    +0.000 C 
ATOM      9  C   UNL     1      -2.174   0.837   1.639  1.00  0.00    +0.000 C 
ATOM     10  C   UNL     1      -3.280   0.590   0.625  1.00  0.00    +0.000 C 
ATOM     11  C   UNL     1      -2.857   0.838  -0.852  1.00  0.00    +0.000 C 
ATOM     12  C   UNL     1      -3.787  -0.016  -1.748  1.00  0.00    +0.000 C 
ATOM     13  C   UNL     1      -1.308  -1.921  -0.206  1.00  0.00    +0.000 C 
ENDROOT
BRANCH   9  14
ATOM     14  O   UNL     1      -1.819   2.218   1.640  1.00  0.00    +0.000 OA
ATOM     15  H   UNL     1      -2.564   2.710   2.027  1.00  0.00    +0.000 HD
ENDBRANCH   9  14
BRANCH   1  16
ATOM     16  C   UNL     1       1.643  -1.503   0.682  1.00  0.00    +0.000 C 
BRANCH  16  19
ATOM     17  C   UNL     1       3.216   0.202   2.777  1.00  0.00    +0.000 C 
ATOM     18  C   UNL     1       3.835  -0.522   1.609  1.00  0.00    +0.000 C 
ATOM     19  C   UNL     1       3.131  -1.237   0.705  1.00  0.00    +0.000 C 
BRANCH  18  20
ATOM     20  C   UNL     1       5.283  -0.423   1.439  1.00  0.00    +0.000 C 
ATOM     21  C   UNL     1       6.141   0.214   2.247  1.00  0.00    +0.000 C 
ENDBRANCH  18  20
ENDBRANCH  16  19
ENDBRANCH   1  16
BRANCH  11  22
ATOM     22  C   UNL     1      -3.140   2.338  -1.185  1.00  0.00    +0.000 C 
BRANCH  22  23
ATOM     23  O   UNL     1      -2.954   2.629  -2.564  1.00  0.00    +0.000 OA
ATOM     24  H   UNL     1      -3.068   3.589  -2.671  1.00  0.00    +0.000 HD
ENDBRANCH  22  23
ENDBRANCH  11  22
TORSDOF 6
