REMARK  Name = /srv/my_project/app/compsite/backup/Dave/CORINA_stuff/newPDBs/SANC00123.pdb
AUTHORGENERATED BY OPEN BABEL 2.3.2
REMARK  1 active torsions:
REMARK  status: ('A' for Active; 'I' for Inactive)
REMARK    1  A    between atoms: C_11  and  O_12
REMARK                            x       y       z     vdW  Elec       q    Type
REMARK                         _______ _______ _______ _____ _____    ______ ____
ROOT
ATOM      1  O   UNL     1       2.692  -0.802  -3.269  1.00  0.00    +0.000 OA
ATOM      2  C   UNL     1       2.139  -0.569  -2.200  1.00  0.00    +0.000 C 
ATOM      3  C   UNL     1       0.621  -0.502  -2.092  1.00  0.00    +0.000 C 
ATOM      4  N   UNL     1      -0.086  -0.763  -3.253  1.00  0.00    +0.000 N 
ATOM      5  C   UNL     1      -1.448  -0.763  -3.310  1.00  0.00    +0.000 C 
ATOM      6  C   UNL     1      -2.192  -0.492  -2.229  1.00  0.00    +0.000 C 
ATOM      7  C   UNL     1      -1.557  -0.162  -0.872  1.00  0.00    +0.000 C 
ATOM      8  C   UNL     1      -2.010   1.246  -0.505  1.00  0.00    +0.000 C 
ATOM      9  C   UNL     1      -2.757   1.532   0.575  1.00  0.00    +0.000 C 
ATOM     10 BR   UNL     1      -3.224   3.300   0.987  1.00  0.00    +0.000 Br
ATOM     11  C   UNL     1      -3.257   0.484   1.549  1.00  0.00    +0.000 C 
ATOM     12  C   UNL     1      -2.809  -0.917   1.196  1.00  0.00    +0.000 C 
ATOM     13 BR   UNL     1      -3.311  -2.261   2.402  1.00  0.00    +0.000 Br
ATOM     14  C   UNL     1      -2.060  -1.206   0.116  1.00  0.00    +0.000 C 
ATOM     15  C   UNL     1      -0.017  -0.210  -0.924  1.00  0.00    +0.000 C 
ATOM     16  C   UNL     1       0.745   0.094   0.339  1.00  0.00    +0.000 C 
ATOM     17  N   UNL     1       0.266   0.467   1.474  1.00  0.00    +0.000 NA
ATOM     18  C   UNL     1       1.199   0.882   2.566  1.00  0.00    +0.000 C 
ATOM     19  C   UNL     1       2.567   0.159   2.625  1.00  0.00    +0.000 C 
ATOM     20  C   UNL     1       3.088  -0.035   1.254  1.00  0.00    +0.000 A 
ATOM     21  C   UNL     1       4.323  -0.254   0.691  1.00  0.00    +0.000 A 
ATOM     22 BR   UNL     1       5.986  -0.332   1.598  1.00  0.00    +0.000 Br
ATOM     23  N   UNL     1       4.158  -0.438  -0.664  1.00  0.00    +0.000 N 
ATOM     24  H   UNL     1       4.898  -0.641  -1.325  1.00  0.00    +0.000 HD
ATOM     25  C   UNL     1       2.821  -0.365  -0.961  1.00  0.00    +0.000 A 
ATOM     26  C   UNL     1       2.164  -0.074   0.201  1.00  0.00    +0.000 A 
ATOM     27  H   UNL     1       0.464  -0.981  -4.084  1.00  0.00    +0.000 HD
ENDROOT
BRANCH  11  28
ATOM     28  O   UNL     1      -4.688   0.510   1.546  1.00  0.00    +0.000 OA
ATOM     29  H   UNL     1      -4.944   1.439   1.677  1.00  0.00    +0.000 HD
ENDBRANCH  11  28
TORSDOF 1
