REMARK  Name = /srv/my_project/app/compsite/backup/Dave/CORINA_stuff/newPDBs/SANC00565.pdb
AUTHORGENERATED BY OPEN BABEL 2.3.2
REMARK  7 active torsions:
REMARK  status: ('A' for Active; 'I' for Inactive)
REMARK    1  A    between atoms: C_1  and  O_2
REMARK    2  A    between atoms: O_2  and  C_3
REMARK    3  A    between atoms: C_5  and  O_6
REMARK    4  A    between atoms: O_6  and  C_7
REMARK    5  A    between atoms: C_11  and  C_13
REMARK    6  A    between atoms: C_13  and  C_14
REMARK    7  A    between atoms: C_17  and  O_18
REMARK                            x       y       z     vdW  Elec       q    Type
REMARK                         _______ _______ _______ _____ _____    ______ ____
ROOT
ATOM      1  C   UNL     1       4.011   0.696  -0.236  1.00  0.00    +0.000 A 
ATOM      2  C   UNL     1       4.005  -0.424   0.603  1.00  0.00    +0.000 A 
ATOM      3  C   UNL     1       2.809  -1.068   0.952  1.00  0.00    +0.000 A 
ATOM      4  C   UNL     1       1.597  -0.575   0.436  1.00  0.00    +0.000 A 
ATOM      5  C   UNL     1       0.269  -1.164   0.775  1.00  0.00    +0.000 C 
ATOM      6  O   UNL     1       0.151  -2.230   1.369  1.00  0.00    +0.000 OA
ATOM      7  C   UNL     1      -0.941  -0.342   0.369  1.00  0.00    +0.000 C 
ATOM      8  C   UNL     1      -0.634   0.211  -1.014  1.00  0.00    +0.000 C 
ATOM      9  O   UNL     1       0.488   1.096  -0.973  1.00  0.00    +0.000 OA
ATOM     10  C   UNL     1       1.609   0.536  -0.417  1.00  0.00    +0.000 A 
ATOM     11  C   UNL     1       2.808   1.177  -0.741  1.00  0.00    +0.000 A 
ENDROOT
BRANCH   1  13
ATOM     12  C   UNL     1       5.316   2.362  -1.322  1.00  0.00    +0.000 C 
ATOM     13  O   UNL     1       5.251   1.219  -0.477  1.00  0.00    +0.000 OA
ENDBRANCH   1  13
BRANCH   3  14
ATOM     14  O   UNL     1       2.753  -2.143   1.796  1.00  0.00    +0.000 OA
ATOM     15  C   UNL     1       3.972  -2.726   2.234  1.00  0.00    +0.000 C 
ENDBRANCH   3  14
BRANCH   7  16
ATOM     16  C   UNL     1      -2.211  -1.206   0.386  1.00  0.00    +0.000 C 
BRANCH  16  17
ATOM     17  C   UNL     1      -3.472  -0.428   0.090  1.00  0.00    +0.000 A 
ATOM     18  C   UNL     1      -3.973   0.495   1.019  1.00  0.00    +0.000 A 
ATOM     19  C   UNL     1      -5.132   1.224   0.743  1.00  0.00    +0.000 A 
ATOM     20  C   UNL     1      -5.792   1.026  -0.465  1.00  0.00    +0.000 A 
ATOM     21  C   UNL     1      -5.314   0.112  -1.395  1.00  0.00    +0.000 A 
ATOM     22  C   UNL     1      -4.157  -0.617  -1.119  1.00  0.00    +0.000 A 
BRANCH  20  23
ATOM     23  O   UNL     1      -6.926   1.716  -0.776  1.00  0.00    +0.000 OA
ATOM     24  H   UNL     1      -7.151   2.294  -0.029  1.00  0.00    +0.000 HD
ENDBRANCH  20  23
ENDBRANCH  16  17
ENDBRANCH   7  16
TORSDOF 5
