REMARK  Name = SANCDB_00939_minRM1.pdb
AUTHORGENERATED BY OPEN BABEL 2.3.2
REMARK  12 active torsions:
REMARK  status: ('A' for Active; 'I' for Inactive)
REMARK    1  A    between atoms: C_1  and  C_2
REMARK    2  A    between atoms: C_2  and  C_30
REMARK    3  A    between atoms: C_3  and  C_4
REMARK    4  A    between atoms: C_4  and  C_5
REMARK    5  A    between atoms: C_6  and  O_29
REMARK    6  A    between atoms: C_7  and  C_24
REMARK    7  A    between atoms: C_10  and  O_11
REMARK    8  A    between atoms: C_14  and  C_17
REMARK    9  A    between atoms: C_20  and  O_23
REMARK   10  A    between atoms: C_24  and  C_25
REMARK   11  A    between atoms: C_26  and  C_27
REMARK   12  A    between atoms: C_26  and  C_28
REMARK                            x       y       z     vdW  Elec       q    Type
REMARK                         _______ _______ _______ _____ _____    ______ ____
ROOT
ATOM      1  C   UNL     1      -0.931  -1.527   1.197  1.00  0.00    +0.000 A 
ATOM      2  C   UNL     1      -1.395  -0.205   1.304  1.00  0.00    +0.000 A 
ATOM      3  C   UNL     1      -0.564   0.904   1.061  1.00  0.00    +0.000 A 
ATOM      4  C   UNL     1       0.760   0.662   0.651  1.00  0.00    +0.000 A 
ATOM      5  C   UNL     1       1.239  -0.643   0.520  1.00  0.00    +0.000 A 
ATOM      6  C   UNL     1       0.398  -1.732   0.796  1.00  0.00    +0.000 A 
ATOM      7  C   UNL     1       2.635  -0.848   0.087  1.00  0.00    +0.000 A 
ATOM      8  O   UNL     1       3.074  -1.988  -0.036  1.00  0.00    +0.000 OA
ATOM      9  C   UNL     1       3.454   0.363  -0.179  1.00  0.00    +0.000 A 
ATOM     10  C   UNL     1       2.845   1.546  -0.017  1.00  0.00    +0.000 A 
ATOM     11  O   UNL     1       1.551   1.756   0.385  1.00  0.00    +0.000 OA
ENDROOT
BRANCH   9  12
ATOM     12  C   UNL     1       4.854   0.291  -0.632  1.00  0.00    +0.000 A 
ATOM     13  C   UNL     1       5.204  -0.501  -1.735  1.00  0.00    +0.000 A 
ATOM     14  C   UNL     1       6.528  -0.564  -2.174  1.00  0.00    +0.000 A 
ATOM     15  C   UNL     1       7.510   0.160  -1.510  1.00  0.00    +0.000 A 
ATOM     16  C   UNL     1       7.191   0.947  -0.409  1.00  0.00    +0.000 A 
ATOM     17  C   UNL     1       5.864   1.010   0.029  1.00  0.00    +0.000 A 
BRANCH  15  18
ATOM     18  O   UNL     1       8.789   0.068  -1.971  1.00  0.00    +0.000 OA
ATOM     19  H   UNL     1       9.368   0.591  -1.393  1.00  0.00    +0.000 HD
ENDBRANCH  15  18
ENDBRANCH   9  12
BRANCH   6  20
ATOM     20  O   UNL     1       0.835  -3.029   0.676  1.00  0.00    +0.000 OA
ATOM     21  H   UNL     1       1.777  -3.018   0.392  1.00  0.00    +0.000 HD
ENDBRANCH   6  20
BRANCH   2  22
ATOM     22  O   UNL     1      -2.704  -0.018   1.664  1.00  0.00    +0.000 OA
ATOM     23  H   UNL     1      -3.048   0.736   1.155  1.00  0.00    +0.000 HD
ENDBRANCH   2  22
BRANCH   1  24
ATOM     24  C   UNL     1      -1.855  -2.700   1.454  1.00  0.00    +0.000 C 
BRANCH  24  27
ATOM     25  C   UNL     1      -4.918  -2.566   0.696  1.00  0.00    +0.000 C 
ATOM     26  C   UNL     1      -3.820  -3.151  -0.147  1.00  0.00    +0.000 C 
ATOM     27  C   UNL     1      -2.516  -3.193   0.191  1.00  0.00    +0.000 C 
ATOM     28  C   UNL     1      -4.285  -3.713  -1.466  1.00  0.00    +0.000 C 
ENDBRANCH  24  27
ENDBRANCH   1  24
BRANCH   3  29
ATOM     29  C   UNL     1      -1.075   2.322   1.234  1.00  0.00    +0.000 C 
BRANCH  29  30
ATOM     30  C   UNL     1      -1.844   2.797   0.029  1.00  0.00    +0.000 C 
ATOM     31  C   UNL     1      -3.109   3.262  -0.028  1.00  0.00    +0.000 C 
ATOM     32  C   UNL     1      -3.705   3.689  -1.346  1.00  0.00    +0.000 C 
ATOM     33  C   UNL     1      -4.040   3.421   1.143  1.00  0.00    +0.000 C 
ENDBRANCH  29  30
ENDBRANCH   3  29
TORSDOF 8
