REMARK  Name = SANCDB_00749_minRM1.pdb
AUTHORGENERATED BY OPEN BABEL 2.3.2
REMARK  7 active torsions:
REMARK  status: ('A' for Active; 'I' for Inactive)
REMARK    1  A    between atoms: O_1  and  C_2
REMARK    2  A    between atoms: C_4  and  O_27
REMARK    3  A    between atoms: C_11  and  C_12
REMARK    4  A    between atoms: C_17  and  C_18
REMARK    5  A    between atoms: C_22  and  C_23
REMARK    6  A    between atoms: C_28  and  C_29
REMARK    7  A    between atoms: C_31  and  O_32
REMARK                            x       y       z     vdW  Elec       q    Type
REMARK                         _______ _______ _______ _____ _____    ______ ____
ROOT
ATOM      1  C   UNL     1      -6.571   0.986  -0.653  1.00  0.00    +0.000 C 
ATOM      2  C   UNL     1      -5.801  -0.193  -1.242  1.00  0.00    +0.000 C 
ATOM      3  C   UNL     1      -4.283   0.048  -1.187  1.00  0.00    +0.000 C 
ATOM      4  C   UNL     1      -3.524  -1.109  -1.858  1.00  0.00    +0.000 C 
ATOM      5  C   UNL     1      -2.020  -0.845  -1.888  1.00  0.00    +0.000 C 
ATOM      6  C   UNL     1      -1.431  -0.550  -0.498  1.00  0.00    +0.000 C 
ATOM      7  C   UNL     1      -2.240   0.516   0.271  1.00  0.00    +0.000 C 
ATOM      8  C   UNL     1      -1.615   1.533   0.913  1.00  0.00    +0.000 C 
ATOM      9  C   UNL     1      -0.114   1.711   1.016  1.00  0.00    +0.000 C 
ATOM     10  C   UNL     1       0.643   0.415   0.678  1.00  0.00    +0.000 C 
ATOM     11  C   UNL     1       0.488  -0.581   1.855  1.00  0.00    +0.000 C 
ATOM     12  C   UNL     1       0.034  -0.110  -0.643  1.00  0.00    +0.000 C 
ATOM     13  C   UNL     1       1.060  -1.133  -1.118  1.00  0.00    +0.000 C 
ATOM     14  C   UNL     1       2.364  -0.371  -0.895  1.00  0.00    +0.000 C 
ATOM     15  C   UNL     1       2.125   0.631   0.255  1.00  0.00    +0.000 C 
ATOM     16  C   UNL     1       3.257   0.314   1.238  1.00  0.00    +0.000 C 
ATOM     17  C   UNL     1       3.769   1.553   1.959  1.00  0.00    +0.000 C 
ATOM     18  C   UNL     1       4.285  -0.403   0.346  1.00  0.00    +0.000 C 
ATOM     19  O   UNL     1       4.991   0.556  -0.446  1.00  0.00    +0.000 OA
ATOM     20  C   UNL     1       6.402   0.382  -0.514  1.00  0.00    +0.000 C 
ATOM     21  C   UNL     1       6.817  -1.059  -0.811  1.00  0.00    +0.000 C 
ATOM     22  C   UNL     1       6.445  -1.454  -2.243  1.00  0.00    +0.000 C 
ATOM     23  C   UNL     1       6.202  -2.031   0.207  1.00  0.00    +0.000 C 
ATOM     24  C   UNL     1       5.204  -1.341   1.136  1.00  0.00    +0.000 C 
ATOM     25  O   UNL     1       3.453  -1.208  -0.517  1.00  0.00    +0.000 OA
ATOM     26  C   UNL     1      -3.780   0.306   0.281  1.00  0.00    +0.000 C 
ATOM     27  C   UNL     1      -4.041  -0.907   1.217  1.00  0.00    +0.000 C 
ATOM     28  C   UNL     1      -4.574   1.523   0.850  1.00  0.00    +0.000 C 
ATOM     29  C   UNL     1      -6.093   1.352   0.758  1.00  0.00    +0.000 C 
ENDROOT
BRANCH   1  30
ATOM     30  O   UNL     1      -7.962   0.654  -0.609  1.00  0.00    +0.000 OA
ATOM     31  H   UNL     1      -8.375   1.325  -0.029  1.00  0.00    +0.000 HD
ENDBRANCH   1  30
BRANCH   3  32
ATOM     32  O   UNL     1      -4.044   1.241  -1.965  1.00  0.00    +0.000 OA
ATOM     33  H   UNL     1      -4.194   1.026  -2.903  1.00  0.00    +0.000 HD
ENDBRANCH   3  32
BRANCH  29  34
ATOM     34  O   UNL     1      -6.749   2.562   1.162  1.00  0.00    +0.000 OA
ATOM     35  H   UNL     1      -6.363   3.292   0.645  1.00  0.00    +0.000 HD
ENDBRANCH  29  34
TORSDOF 3
