REMARK  Name = /srv/my_project/app/compsite/backup/Dave/CORINA_stuff/newPDBs/SANC00353.pdb
AUTHORGENERATED BY OPEN BABEL 2.3.2
REMARK  2 active torsions:
REMARK  status: ('A' for Active; 'I' for Inactive)
REMARK    1  A    between atoms: C_8  and  C_9
REMARK    2  A    between atoms: C_16  and  C_17
REMARK                            x       y       z     vdW  Elec       q    Type
REMARK                         _______ _______ _______ _____ _____    ______ ____
ROOT
ATOM      1  C   UNL     1      -0.588  -0.820   0.123  1.00  0.00    +0.000 C 
ATOM      2  C   UNL     1      -1.576  -1.811   0.755  1.00  0.00    +0.000 C 
ATOM      3  C   UNL     1      -2.853  -1.889  -0.031  1.00  0.00    +0.000 C 
ATOM      4  C   UNL     1      -3.240  -0.972  -0.929  1.00  0.00    +0.000 C 
ATOM      5  C   UNL     1      -2.440   0.262  -1.159  1.00  0.00    +0.000 C 
ATOM      6  O   UNL     1      -2.789   1.037  -2.046  1.00  0.00    +0.000 OA
ATOM      7  C   UNL     1      -1.264   0.544  -0.216  1.00  0.00    +0.000 C 
ATOM      8  C   UNL     1      -1.841   1.266   1.019  1.00  0.00    +0.000 C 
ATOM      9  C   UNL     1      -0.228   1.456  -0.926  1.00  0.00    +0.000 C 
ATOM     10  C   UNL     1       1.044   1.627  -0.096  1.00  0.00    +0.000 C 
ATOM     11  O   UNL     1       2.086   2.226  -0.858  1.00  0.00    +0.000 OA
ATOM     12  C   UNL     1       3.184   1.420  -0.825  1.00  0.00    +0.000 C 
ATOM     13  O   UNL     1       4.262   1.673  -1.332  1.00  0.00    +0.000 OA
ATOM     14  C   UNL     1       2.857   0.182  -0.099  1.00  0.00    +0.000 C 
ATOM     15  C   UNL     1       3.830  -0.926   0.018  1.00  0.00    +0.000 C 
ATOM     16  C   UNL     1       1.593   0.310   0.305  1.00  0.00    +0.000 C 
ATOM     17  C   UNL     1       0.685  -0.665   0.975  1.00  0.00    +0.000 C 
ENDROOT
TORSDOF 0
