REMARK  Name = SANCDB_00998_minRM1.pdb
AUTHORGENERATED BY OPEN BABEL 2.3.2
REMARK  7 active torsions:
REMARK  status: ('A' for Active; 'I' for Inactive)
REMARK    1  A    between atoms: C_1  and  O_2
REMARK    2  A    between atoms: O_2  and  C_3
REMARK    3  A    between atoms: C_4  and  O_22
REMARK    4  A    between atoms: C_5  and  O_21
REMARK    5  A    between atoms: C_10  and  C_14
REMARK    6  A    between atoms: C_17  and  O_20
REMARK    7  A    between atoms: O_22  and  C_23
REMARK                            x       y       z     vdW  Elec       q    Type
REMARK                         _______ _______ _______ _____ _____    ______ ____
ROOT
ATOM      1  C   UNL     1      -2.849   0.780  -0.202  1.00  0.00    +0.000 A 
ATOM      2  C   UNL     1      -3.339  -0.537  -0.188  1.00  0.00    +0.000 A 
ATOM      3  C   UNL     1      -2.447  -1.626  -0.195  1.00  0.00    +0.000 A 
ATOM      4  C   UNL     1      -1.067  -1.423  -0.164  1.00  0.00    +0.000 A 
ATOM      5  C   UNL     1      -0.587  -0.114  -0.145  1.00  0.00    +0.000 A 
ATOM      6  C   UNL     1      -1.465   0.978  -0.167  1.00  0.00    +0.000 A 
ATOM      7  O   UNL     1       0.751   0.200  -0.115  1.00  0.00    +0.000 OA
ATOM      8  C   UNL     1       1.671  -0.832  -0.084  1.00  0.00    +0.000 A 
ATOM      9  C   UNL     1       1.342  -2.130  -0.107  1.00  0.00    +0.000 A 
ATOM     10  C   UNL     1      -0.078  -2.524  -0.150  1.00  0.00    +0.000 A 
ATOM     11  O   UNL     1      -0.358  -3.714  -0.169  1.00  0.00    +0.000 OA
ENDROOT
BRANCH   8  12
ATOM     12  C   UNL     1       3.077  -0.389  -0.048  1.00  0.00    +0.000 A 
ATOM     13  C   UNL     1       3.500   0.669  -0.870  1.00  0.00    +0.000 A 
ATOM     14  C   UNL     1       4.827   1.111  -0.845  1.00  0.00    +0.000 A 
ATOM     15  C   UNL     1       5.734   0.498   0.011  1.00  0.00    +0.000 A 
ATOM     16  C   UNL     1       5.337  -0.543   0.840  1.00  0.00    +0.000 A 
ATOM     17  C   UNL     1       4.012  -0.985   0.813  1.00  0.00    +0.000 A 
BRANCH  15  18
ATOM     18  O   UNL     1       7.037   0.895   0.070  1.00  0.00    +0.000 OA
ATOM     19  H   UNL     1       7.172   1.617  -0.566  1.00  0.00    +0.000 HD
ENDBRANCH  15  18
ENDBRANCH   8  12
BRANCH   1  21
ATOM     20  C   UNL     1      -3.279   3.126  -0.388  1.00  0.00    +0.000 C 
ATOM     21  O   UNL     1      -3.765   1.794  -0.271  1.00  0.00    +0.000 OA
ENDBRANCH   1  21
BRANCH   3  22
ATOM     22  O   UNL     1      -2.981  -2.888  -0.225  1.00  0.00    +0.000 OA
ATOM     23  H   UNL     1      -3.948  -2.775  -0.300  1.00  0.00    +0.000 HD
ENDBRANCH   3  22
BRANCH   2  24
ATOM     24  O   UNL     1      -4.668  -0.896  -0.229  1.00  0.00    +0.000 OA
ATOM     25  C   UNL     1      -5.517  -0.146   0.639  1.00  0.00    +0.000 C 
ENDBRANCH   2  24
TORSDOF 5
