REMARK  Name = SANCDB_01101_minRM1.pdb
AUTHORGENERATED BY OPEN BABEL 2.3.2
REMARK  4 active torsions:
REMARK  status: ('A' for Active; 'I' for Inactive)
REMARK    1  A    between atoms: C_1  and  O_2
REMARK    2  A    between atoms: O_2  and  C_3
REMARK    3  A    between atoms: C_4  and  O_23
REMARK    4  A    between atoms: O_23  and  C_24
REMARK                            x       y       z     vdW  Elec       q    Type
REMARK                         _______ _______ _______ _____ _____    ______ ____
ROOT
ATOM      1  C   UNL     1      -1.937  -1.880  -0.216  1.00  0.00    +0.000 A 
ATOM      2  C   UNL     1      -0.559  -1.579  -0.188  1.00  0.00    +0.000 A 
ATOM      3  C   UNL     1      -0.081  -0.248  -0.149  1.00  0.00    +0.000 A 
ATOM      4  C   UNL     1      -1.051   0.780  -0.015  1.00  0.00    +0.000 A 
ATOM      5  C   UNL     1      -0.582   2.226   0.100  1.00  0.00    +0.000 C 
ATOM      6  C   UNL     1       0.707   2.298   0.940  1.00  0.00    +0.000 C 
ATOM      7  C   UNL     1       1.763   1.390   0.353  1.00  0.00    +0.000 A 
ATOM      8  C   UNL     1       3.111   1.791   0.371  1.00  0.00    +0.000 A 
ATOM      9  C   UNL     1       4.035   0.959  -0.214  1.00  0.00    +0.000 A 
ATOM     10  C   UNL     1       3.664  -0.223  -0.801  1.00  0.00    +0.000 A 
ATOM     11  C   UNL     1       2.350  -0.651  -0.821  1.00  0.00    +0.000 A 
ATOM     12  C   UNL     1       1.361   0.139  -0.205  1.00  0.00    +0.000 A 
ATOM     13  O   UNL     1       4.721  -0.887  -1.343  1.00  0.00    +0.000 OA
ATOM     14  C   UNL     1       5.800   0.014  -1.021  1.00  0.00    +0.000 C 
ATOM     15  O   UNL     1       5.371   1.190  -0.304  1.00  0.00    +0.000 OA
ATOM     16  N   UNL     1      -1.596   3.121   0.694  1.00  0.00    +0.000 NA
ATOM     17  C   UNL     1      -2.856   2.983  -0.042  1.00  0.00    +0.000 C 
ATOM     18  C   UNL     1      -3.454   1.585   0.132  1.00  0.00    +0.000 C 
ATOM     19  C   UNL     1      -2.432   0.486  -0.029  1.00  0.00    +0.000 A 
ATOM     20  C   UNL     1      -2.863  -0.842  -0.134  1.00  0.00    +0.000 A 
ATOM     21  H   UNL     1      -1.744   2.840   1.663  1.00  0.00    +0.000 HD
ENDROOT
BRANCH   1  23
ATOM     22  C   UNL     1      -3.627  -3.530  -0.560  1.00  0.00    +0.000 C 
ATOM     23  O   UNL     1      -2.267  -3.210  -0.299  1.00  0.00    +0.000 OA
ENDBRANCH   1  23
BRANCH   2  24
ATOM     24  O   UNL     1       0.327  -2.635  -0.225  1.00  0.00    +0.000 OA
ATOM     25  C   UNL     1       0.571  -3.114   1.099  1.00  0.00    +0.000 C 
ENDBRANCH   2  24
TORSDOF 2
