REMARK  Name = SANCDB_00751_minRM1.pdb
AUTHORGENERATED BY OPEN BABEL 2.3.2
REMARK  12 active torsions:
REMARK  status: ('A' for Active; 'I' for Inactive)
REMARK    1  A    between atoms: C_1  and  C_2
REMARK    2  A    between atoms: C_2  and  C_3
REMARK    3  A    between atoms: C_2  and  C_4
REMARK    4  A    between atoms: C_4  and  C_5
REMARK    5  A    between atoms: C_5  and  C_6
REMARK    6  A    between atoms: C_6  and  C_7
REMARK    7  A    between atoms: C_6  and  C_9
REMARK    8  A    between atoms: C_7  and  C_8
REMARK    9  A    between atoms: C_9  and  C_10
REMARK   10  A    between atoms: C_9  and  C_11
REMARK   11  A    between atoms: C_24  and  C_25
REMARK   12  A    between atoms: C_29  and  C_30
REMARK                            x       y       z     vdW  Elec       q    Type
REMARK                         _______ _______ _______ _____ _____    ______ ____
ROOT
ATOM      1  C   UNL     1      -0.778  -1.904  -0.384  1.00  0.00    +0.000 C 
ATOM      2  C   UNL     1      -0.232  -3.289  -0.832  1.00  0.00    +0.000 C 
ATOM      3  C   UNL     1       1.294  -3.149  -0.934  1.00  0.00    +0.000 C 
ATOM      4  C   UNL     1       1.582  -1.793  -0.304  1.00  0.00    +0.000 C 
ATOM      5  C   UNL     1       2.945  -1.140  -0.565  1.00  0.00    +0.000 C 
ATOM      6  C   UNL     1       4.099  -2.060  -0.143  1.00  0.00    +0.000 C 
ATOM      7  C   UNL     1       5.449  -1.394  -0.375  1.00  0.00    +0.000 C 
ATOM      8  C   UNL     1       5.545  -0.051   0.311  1.00  0.00    +0.000 C 
ATOM      9  C   UNL     1       6.613   0.224   1.081  1.00  0.00    +0.000 C 
ATOM     10  C   UNL     1       6.821   1.563   1.678  1.00  0.00    +0.000 C 
ATOM     11  O   UNL     1       7.794   1.758   2.402  1.00  0.00    +0.000 OA
ATOM     12  C   UNL     1       5.867   2.663   1.297  1.00  0.00    +0.000 C 
ATOM     13  C   UNL     1       4.467   2.104   1.087  1.00  0.00    +0.000 C 
ATOM     14  C   UNL     1       4.402   0.940   0.054  1.00  0.00    +0.000 C 
ATOM     15  C   UNL     1       4.578   1.521  -1.367  1.00  0.00    +0.000 C 
ATOM     16  C   UNL     1       3.018   0.202   0.224  1.00  0.00    +0.000 C 
ATOM     17  C   UNL     1       1.788   1.100  -0.063  1.00  0.00    +0.000 C 
ATOM     18  C   UNL     1       0.441   0.371   0.095  1.00  0.00    +0.000 C 
ATOM     19  C   UNL     1       0.377  -0.919  -0.742  1.00  0.00    +0.000 C 
ATOM     20  C   UNL     1       0.390  -0.561  -2.243  1.00  0.00    +0.000 C 
ENDROOT
BRANCH   1  21
ATOM     21  C   UNL     1      -2.259  -1.652  -0.791  1.00  0.00    +0.000 C 
ATOM     22  C   UNL     1      -2.570  -1.692  -2.292  1.00  0.00    +0.000 C 
BRANCH  21  23
ATOM     23  C   UNL     1      -2.806  -0.354  -0.150  1.00  0.00    +0.000 C 
BRANCH  23  24
ATOM     24  C   UNL     1      -4.341  -0.293  -0.110  1.00  0.00    +0.000 C 
BRANCH  24  25
ATOM     25  C   UNL     1      -4.916   1.052   0.411  1.00  0.00    +0.000 C 
BRANCH  25  26
ATOM     26  C   UNL     1      -4.332   1.482   1.793  1.00  0.00    +0.000 C 
ATOM     27  C   UNL     1      -4.782   2.890   2.205  1.00  0.00    +0.000 C 
ATOM     28  C   UNL     1      -4.633   0.496   2.924  1.00  0.00    +0.000 C 
ENDBRANCH  25  26
BRANCH  25  29
ATOM     29  C   UNL     1      -6.466   1.014   0.412  1.00  0.00    +0.000 C 
ATOM     30  C   UNL     1      -7.084   0.810  -0.967  1.00  0.00    +0.000 C 
ENDBRANCH  25  29
ENDBRANCH  24  25
ENDBRANCH  23  24
ENDBRANCH  21  23
ENDBRANCH   1  21
TORSDOF 6
