REMARK  Name = /srv/my_project/app/compsite/backup/Dave/CORINA_stuff/newPDBs/SANC00273.pdb
AUTHORGENERATED BY OPEN BABEL 2.3.2
REMARK  6 active torsions:
REMARK  status: ('A' for Active; 'I' for Inactive)
REMARK    1  A    between atoms: C_1  and  C_2
REMARK    2  A    between atoms: C_2  and  C_5
REMARK    3  A    between atoms: C_6  and  C_7
REMARK    4  A    between atoms: C_7  and  C_10
REMARK    5  A    between atoms: C_10  and  C_11
REMARK    6  A    between atoms: C_10  and  C_13
REMARK                            x       y       z     vdW  Elec       q    Type
REMARK                         _______ _______ _______ _____ _____    ______ ____
ROOT
ATOM      1  C   UNL     1      -0.690   0.794   1.043  1.00  0.00    +0.000 C 
ATOM      2 CL   UNL     1      -0.704   1.175   2.807  1.00  0.00    +0.000 Cl
ENDROOT
BRANCH   1   3
ATOM      3  C   UNL     1      -1.982   0.025   0.558  1.00  0.00    +0.000 C 
ATOM      4  C   UNL     1      -3.239   0.849   0.895  1.00  0.00    +0.000 C 
ATOM      5 CL   UNL     1      -2.094  -1.570   1.407  1.00  0.00    +0.000 Cl
BRANCH   3   6
ATOM      6  C   UNL     1      -1.914  -0.220  -0.954  1.00  0.00    +0.000 C 
ATOM      7  C   UNL     1      -2.710  -0.922  -1.775  1.00  0.00    +0.000 C 
ATOM      8 BR   UNL     1      -4.240  -1.883  -1.379  1.00  0.00    +0.000 Br
ENDBRANCH   3   6
ENDBRANCH   1   3
BRANCH   1  10
ATOM      9  C   UNL     1       1.600   0.599  -0.009  1.00  0.00    +0.000 C 
ATOM     10  C   UNL     1       0.626   0.091   0.767  1.00  0.00    +0.000 C 
BRANCH   9  12
ATOM     11  C   UNL     1       3.186  -1.365   0.340  1.00  0.00    +0.000 C 
ATOM     12  C   UNL     1       2.881  -0.036  -0.309  1.00  0.00    +0.000 C 
ATOM     13  C   UNL     1       3.800   0.508  -1.128  1.00  0.00    +0.000 C 
ATOM     14 BR   UNL     1       3.711   2.109  -2.066  1.00  0.00    +0.000 Br
ENDBRANCH   9  12
ENDBRANCH   1  10
TORSDOF 4
