REMARK  Name = /srv/my_project/app/compsite/backup/Dave/CORINA_stuff/newPDBs/SANC00453.pdb
AUTHORGENERATED BY OPEN BABEL 2.3.2
REMARK  11 active torsions:
REMARK  status: ('A' for Active; 'I' for Inactive)
REMARK    1  A    between atoms: C_1  and  O_2
REMARK    2  A    between atoms: O_2  and  C_3
REMARK    3  A    between atoms: C_4  and  O_5
REMARK    4  A    between atoms: O_5  and  C_6
REMARK    5  A    between atoms: C_12  and  C_13
REMARK    6  A    between atoms: C_13  and  C_14
REMARK    7  A    between atoms: C_14  and  N_15
REMARK    8  A    between atoms: N_15  and  C_16
REMARK    9  A    between atoms: N_15  and  C_17
REMARK   10  A    between atoms: C_18  and  S_19
REMARK   11  A    between atoms: S_19  and  C_20
REMARK                            x       y       z     vdW  Elec       q    Type
REMARK                         _______ _______ _______ _____ _____    ______ ____
ROOT
ATOM      1  C   UNL     1      -1.567   0.078   0.865  1.00  0.00    +0.000 A 
ATOM      2  C   UNL     1      -1.910  -1.284   0.752  1.00  0.00    +0.000 A 
ATOM      3  C   UNL     1      -1.092  -2.111  -0.035  1.00  0.00    +0.000 A 
ATOM      4  S   UNL     1      -1.121  -3.872  -0.186  1.00  0.00    +0.000 S 
ATOM      5  S   UNL     1      -0.705  -3.762  -2.183  1.00  0.00    +0.000 S 
ATOM      6  S   UNL     1       0.975  -2.594  -1.906  1.00  0.00    +0.000 S 
ATOM      7  C   UNL     1       0.127  -1.437  -0.848  1.00  0.00    +0.000 A 
ATOM      8  C   UNL     1       0.446  -0.066  -0.631  1.00  0.00    +0.000 A 
ATOM      9  C   UNL     1      -0.441   0.669   0.217  1.00  0.00    +0.000 A 
ATOM     10  H   UNL     1      -2.467  -3.894  -0.278  1.00  0.00    +0.000 HD
ATOM     11  H   UNL     1       0.036  -4.895  -2.160  1.00  0.00    +0.000 HD
ENDROOT
BRANCH   1  13
ATOM     12  C   UNL     1      -3.551   1.262   1.174  1.00  0.00    +0.000 C 
ATOM     13  O   UNL     1      -2.305   0.861   1.738  1.00  0.00    +0.000 OA
ENDBRANCH   1  13
BRANCH   2  14
ATOM     14  O   UNL     1      -2.941  -1.790   1.517  1.00  0.00    +0.000 OA
ATOM     15  C   UNL     1      -4.105  -2.042   0.731  1.00  0.00    +0.000 C 
ENDBRANCH   2  14
BRANCH   9  16
ATOM     16  S   UNL     1      -0.168   2.449   0.499  1.00  0.00    +0.000 S 
ATOM     17  C   UNL     1      -1.025   3.092  -0.959  1.00  0.00    +0.000 C 
ENDBRANCH   9  16
BRANCH   8  18
ATOM     18  C   UNL     1       1.681   0.551  -1.274  1.00  0.00    +0.000 C 
BRANCH  18  19
ATOM     19  C   UNL     1       3.007   0.157  -0.586  1.00  0.00    +0.000 C 
BRANCH  19  20
ATOM     20  N   UNL     1       3.196   0.748   0.749  1.00  0.00    +0.000 NA
ATOM     21  C   UNL     1       4.173  -0.021   1.522  1.00  0.00    +0.000 C 
ATOM     22  C   UNL     1       3.624   2.146   0.667  1.00  0.00    +0.000 C 
ENDBRANCH  19  20
ENDBRANCH  18  19
ENDBRANCH   8  18
TORSDOF 6
