REMARK  Name = SANCDB_00815_minRM1.pdb
AUTHORGENERATED BY OPEN BABEL 2.3.2
REMARK  2 active torsions:
REMARK  status: ('A' for Active; 'I' for Inactive)
REMARK    1  A    between atoms: C_6  and  O_7
REMARK    2  A    between atoms: C_8  and  O_9
REMARK                            x       y       z     vdW  Elec       q    Type
REMARK                         _______ _______ _______ _____ _____    ______ ____
ROOT
ATOM      1  C   UNL     1      -0.854   1.245   0.570  1.00  0.00    +0.000 C 
ATOM      2  C   UNL     1       0.349   1.238  -0.397  1.00  0.00    +0.000 C 
ATOM      3  N   UNL     1       0.938  -0.086  -0.548  1.00  0.00    +0.000 NA
ATOM      4  C   UNL     1       2.006  -0.173  -1.542  1.00  0.00    +0.000 C 
ATOM      5  C   UNL     1       3.375   0.246  -1.012  1.00  0.00    +0.000 C 
ATOM      6  C   UNL     1       3.760  -0.554   0.232  1.00  0.00    +0.000 C 
ATOM      7  C   UNL     1       2.653  -0.491   1.300  1.00  0.00    +0.000 C 
ATOM      8  C   UNL     1       1.247  -0.811   0.702  1.00  0.00    +0.000 C 
ATOM      9  C   UNL     1       0.108  -0.690   1.759  1.00  0.00    +0.000 C 
ATOM     10  C   UNL     1      -1.108  -1.552   1.370  1.00  0.00    +0.000 C 
ATOM     11  N   UNL     1      -1.842  -1.060   0.205  1.00  0.00    +0.000 N 
ATOM     12  C   UNL     1      -2.722  -1.961  -0.393  1.00  0.00    +0.000 C 
ATOM     13  O   UNL     1      -2.848  -3.127  -0.016  1.00  0.00    +0.000 OA
ATOM     14  C   UNL     1      -3.454  -1.482  -1.631  1.00  0.00    +0.000 C 
ATOM     15  C   UNL     1      -3.825  -0.013  -1.596  1.00  0.00    +0.000 C 
ATOM     16  C   UNL     1      -2.594   0.811  -1.260  1.00  0.00    +0.000 C 
ATOM     17  C   UNL     1      -2.072   0.391   0.117  1.00  0.00    +0.000 C 
ATOM     18  C   UNL     1      -0.380   0.749   1.935  1.00  0.00    +0.000 C 
ENDROOT
BRANCH   6  19
ATOM     19  O   UNL     1       4.028  -1.903  -0.153  1.00  0.00    +0.000 OA
ATOM     20  H   UNL     1       4.397  -2.361   0.622  1.00  0.00    +0.000 HD
ENDBRANCH   6  19
BRANCH   7  21
ATOM     21  O   UNL     1       2.706   0.769   1.970  1.00  0.00    +0.000 OA
ATOM     22  H   UNL     1       2.547   1.459   1.306  1.00  0.00    +0.000 HD
ENDBRANCH   7  21
TORSDOF 2
