REMARK  Name = SANCDB_00903_minRM1.pdb
AUTHORGENERATED BY OPEN BABEL 2.3.2
REMARK  4 active torsions:
REMARK  status: ('A' for Active; 'I' for Inactive)
REMARK    1  A    between atoms: C_1  and  C_2
REMARK    2  A    between atoms: C_6  and  C_9
REMARK    3  A    between atoms: C_9  and  C_10
REMARK    4  A    between atoms: C_9  and  C_11
REMARK                            x       y       z     vdW  Elec       q    Type
REMARK                         _______ _______ _______ _____ _____    ______ ____
ROOT
ATOM      1  C   UNL     1       3.818   0.054  -0.039  1.00  0.00    +0.000 C 
ATOM      2  C   UNL     1       2.318  -0.009  -0.013  1.00  0.00    +0.000 C 
ATOM      3  C   UNL     1       1.623   0.284   1.098  1.00  0.00    +0.000 C 
ATOM      4  C   UNL     1       0.141   0.158   1.145  1.00  0.00    +0.000 C 
ATOM      5  O   UNL     1      -0.434   0.487   2.179  1.00  0.00    +0.000 OA
ATOM      6  C   UNL     1      -0.561  -0.461  -0.067  1.00  0.00    +0.000 C 
ATOM      7  C   UNL     1       0.174  -0.025  -1.343  1.00  0.00    +0.000 C 
ATOM      8  C   UNL     1       1.652  -0.416  -1.301  1.00  0.00    +0.000 C 
ENDROOT
BRANCH   6   9
ATOM      9  C   UNL     1      -2.081  -0.168  -0.164  1.00  0.00    +0.000 C 
ATOM     10  C   UNL     1      -2.438   1.321  -0.175  1.00  0.00    +0.000 C 
ATOM     11  C   UNL     1      -2.882  -0.896   0.921  1.00  0.00    +0.000 C 
ENDBRANCH   6   9
TORSDOF 1
