REMARK  Name = /srv/my_project/app/compsite/backup/Dave/CORINA_stuff/newPDBs/SANC00261.pdb
AUTHORGENERATED BY OPEN BABEL 2.3.2
REMARK  10 active torsions:
REMARK  status: ('A' for Active; 'I' for Inactive)
REMARK    1  A    between atoms: C_1  and  C_2
REMARK    2  A    between atoms: C_2  and  C_3
REMARK    3  A    between atoms: C_6  and  C_7
REMARK    4  A    between atoms: C_10  and  C_11
REMARK    5  A    between atoms: C_14  and  O_15
REMARK    6  A    between atoms: C_17  and  C_18
REMARK    7  A    between atoms: C_21  and  O_22
REMARK    8  A    between atoms: C_23  and  C_24
REMARK    9  A    between atoms: C_23  and  C_25
REMARK   10  A    between atoms: C_29  and  C_30
REMARK                            x       y       z     vdW  Elec       q    Type
REMARK                         _______ _______ _______ _____ _____    ______ ____
ROOT
ATOM      1  C   UNL     1      -6.393   0.768  -2.132  1.00  0.00    +0.000 C 
ATOM      2  C   UNL     1      -5.364  -0.265  -1.633  1.00  0.00    +0.000 C 
ATOM      3  C   UNL     1      -5.101  -1.254  -2.790  1.00  0.00    +0.000 C 
ATOM      4  C   UNL     1      -5.965  -1.032  -0.428  1.00  0.00    +0.000 C 
ATOM      5  C   UNL     1      -4.935  -1.815   0.402  1.00  0.00    +0.000 C 
ATOM      6  C   UNL     1      -3.745  -0.921   0.848  1.00  0.00    +0.000 C 
ATOM      7  C   UNL     1      -4.323   0.148   1.809  1.00  0.00    +0.000 C 
ATOM      8  C   UNL     1      -2.691  -1.750   1.594  1.00  0.00    +0.000 C 
ATOM      9  C   UNL     1      -1.476  -0.917   2.027  1.00  0.00    +0.000 C 
ATOM     10  C   UNL     1      -0.907   0.130   0.989  1.00  0.00    +0.000 C 
ATOM     11  C   UNL     1      -1.161   1.559   1.559  1.00  0.00    +0.000 C 
ATOM     12  C   UNL     1      -1.629   0.086  -0.368  1.00  0.00    +0.000 C 
ATOM     13  C   UNL     1      -0.953   0.303  -1.520  1.00  0.00    +0.000 C 
ATOM     14  C   UNL     1       0.509   0.623  -1.664  1.00  0.00    +0.000 C 
ATOM     15  C   UNL     1       1.247   0.833  -0.325  1.00  0.00    +0.000 C 
ATOM     16  C   UNL     1       2.858   0.998  -0.375  1.00  0.00    +0.000 C 
ATOM     17  C   UNL     1       3.138   2.461   0.074  1.00  0.00    +0.000 C 
ATOM     18  C   UNL     1       3.436   0.822  -1.806  1.00  0.00    +0.000 C 
ATOM     19  C   UNL     1       4.962   0.847  -1.877  1.00  0.00    +0.000 C 
ATOM     20  C   UNL     1       5.599  -0.209  -0.980  1.00  0.00    +0.000 C 
ATOM     21  C   UNL     1       5.157  -0.101   0.510  1.00  0.00    +0.000 C 
ATOM     22  C   UNL     1       5.633  -1.389   1.243  1.00  0.00    +0.000 C 
ATOM     23  C   UNL     1       5.881   1.066   1.215  1.00  0.00    +0.000 C 
ATOM     24  C   UNL     1       3.575  -0.042   0.560  1.00  0.00    +0.000 C 
ATOM     25  C   UNL     1       2.989  -0.071   1.984  1.00  0.00    +0.000 C 
ATOM     26  C   UNL     1       1.478   0.154   2.072  1.00  0.00    +0.000 C 
ATOM     27  C   UNL     1       0.685  -0.142   0.774  1.00  0.00    +0.000 C 
ATOM     28  C   UNL     1       0.876  -1.632   0.338  1.00  0.00    +0.000 C 
ATOM     29  C   UNL     1      -3.075  -0.408  -0.459  1.00  0.00    +0.000 C 
ATOM     30  C   UNL     1      -4.050   0.482  -1.261  1.00  0.00    +0.000 C 
ENDROOT
BRANCH  14  31
ATOM     31  O   UNL     1       0.613   1.813  -2.441  1.00  0.00    +0.000 OA
ATOM     32  H   UNL     1       0.068   1.698  -3.236  1.00  0.00    +0.000 HD
ENDBRANCH  14  31
BRANCH  20  33
ATOM     33  O   UNL     1       7.014  -0.091  -1.126  1.00  0.00    +0.000 OA
ATOM     34  H   UNL     1       7.423  -0.883  -0.739  1.00  0.00    +0.000 HD
ENDBRANCH  20  33
TORSDOF 2
