REMARK  Name = /srv/my_project/app/compsite/backup/Dave/CORINA_stuff/newPDBs/SANC00678.pdb
AUTHORGENERATED BY OPEN BABEL 2.3.2
REMARK  10 active torsions:
REMARK  status: ('A' for Active; 'I' for Inactive)
REMARK    1  A    between atoms: C_1  and  O_2
REMARK    2  A    between atoms: O_2  and  C_3
REMARK    3  A    between atoms: C_5  and  C_6
REMARK    4  A    between atoms: C_6  and  C_7
REMARK    5  A    between atoms: C_7  and  C_8
REMARK    6  A    between atoms: C_11  and  O_12
REMARK    7  A    between atoms: O_12  and  C_13
REMARK    8  A    between atoms: C_14  and  O_15
REMARK    9  A    between atoms: C_18  and  O_19
REMARK   10  A    between atoms: O_19  and  C_20
REMARK                            x       y       z     vdW  Elec       q    Type
REMARK                         _______ _______ _______ _____ _____    ______ ____
ROOT
ATOM      1  C   UNL     1       0.098  -0.625   0.155  1.00  0.00    +0.000 C 
ENDROOT
BRANCH   1   4
ATOM      2  C   UNL     1      -3.588  -0.504  -0.825  1.00  0.00    +0.000 A 
ATOM      3  C   UNL     1      -2.198  -0.636  -0.898  1.00  0.00    +0.000 A 
ATOM      4  C   UNL     1      -1.402  -0.503   0.245  1.00  0.00    +0.000 A 
ATOM      5  C   UNL     1      -2.022  -0.225   1.468  1.00  0.00    +0.000 A 
ATOM      6  C   UNL     1      -3.411  -0.090   1.555  1.00  0.00    +0.000 A 
ATOM      7  C   UNL     1      -4.193  -0.231   0.405  1.00  0.00    +0.000 A 
BRANCH   2   9
ATOM      8  C   UNL     1      -5.651  -0.552  -2.014  1.00  0.00    +0.000 C 
ATOM      9  O   UNL     1      -4.233  -0.661  -2.022  1.00  0.00    +0.000 OA
ENDBRANCH   2   9
BRANCH   6  10
ATOM     10  O   UNL     1      -3.874   0.180   2.815  1.00  0.00    +0.000 OA
ATOM     11  C   UNL     1      -5.280   0.314   2.975  1.00  0.00    +0.000 C 
ENDBRANCH   6  10
ENDBRANCH   1   4
BRANCH   1  12
ATOM     12  C   UNL     1       0.756   0.725  -0.140  1.00  0.00    +0.000 C 
BRANCH  12  13
ATOM     13  C   UNL     1       2.258   0.606  -0.224  1.00  0.00    +0.000 A 
ATOM     14  C   UNL     1       2.879   0.306  -1.443  1.00  0.00    +0.000 A 
ATOM     15  C   UNL     1       4.270   0.174  -1.524  1.00  0.00    +0.000 A 
ATOM     16  C   UNL     1       5.064   0.337  -0.386  1.00  0.00    +0.000 A 
ATOM     17  C   UNL     1       4.438   0.632   0.832  1.00  0.00    +0.000 A 
ATOM     18  C   UNL     1       3.050   0.764   0.919  1.00  0.00    +0.000 A 
BRANCH  16  19
ATOM     19  O   UNL     1       6.429   0.230  -0.357  1.00  0.00    +0.000 OA
ATOM     20  C   UNL     1       7.089  -0.062  -1.580  1.00  0.00    +0.000 C 
ENDBRANCH  16  19
BRANCH  17  21
ATOM     21  O   UNL     1       5.205   0.791   1.956  1.00  0.00    +0.000 OA
ATOM     22  H   UNL     1       4.628   1.004   2.705  1.00  0.00    +0.000 HD
ENDBRANCH  17  21
ENDBRANCH  12  13
ENDBRANCH   1  12
TORSDOF 7
