REMARK  Name = /srv/my_project/app/compsite/backup/Dave/CORINA_stuff/newPDBs/SANC00479.pdb
AUTHORGENERATED BY OPEN BABEL 2.3.2
REMARK  16 active torsions:
REMARK  status: ('A' for Active; 'I' for Inactive)
REMARK    1  A    between atoms: C_1  and  C_2
REMARK    2  A    between atoms: C_13  and  O_22
REMARK    3  A    between atoms: C_15  and  C_21
REMARK    4  A    between atoms: C_17  and  C_19
REMARK    5  A    between atoms: C_17  and  C_20
REMARK    6  A    between atoms: C_26  and  O_81
REMARK    7  A    between atoms: C_33  and  C_80
REMARK    8  A    between atoms: C_41  and  C_79
REMARK    9  A    between atoms: C_51  and  O_75
REMARK   10  A    between atoms: C_53  and  C_74
REMARK   11  A    between atoms: C_58  and  O_73
REMARK   12  A    between atoms: C_59  and  C_72
REMARK   13  A    between atoms: C_63  and  O_71
REMARK   14  A    between atoms: C_66  and  C_68
REMARK   15  A    between atoms: C_66  and  C_69
REMARK   16  A    between atoms: C_69  and  O_70
REMARK                            x       y       z     vdW  Elec       q    Type
REMARK                         _______ _______ _______ _____ _____    ______ ____
ROOT
ATOM      1  C   UNL     1      11.808  -1.956  -0.543  1.00  0.00    +0.000 C 
ATOM      2  C   UNL     1      10.620  -1.015  -0.780  1.00  0.00    +0.000 C 
ATOM      3  C   UNL     1       9.424  -1.421   0.111  1.00  0.00    +0.000 C 
ATOM      4  C   UNL     1       9.683  -1.345   1.625  1.00  0.00    +0.000 C 
ATOM      5  C   UNL     1       8.359  -0.928   2.169  1.00  0.00    +0.000 C 
ATOM      6  C   UNL     1       7.539  -0.466   1.216  1.00  0.00    +0.000 C 
ATOM      7  C   UNL     1       8.183  -0.531  -0.155  1.00  0.00    +0.000 C 
ATOM      8  C   UNL     1       8.582   0.824  -0.754  1.00  0.00    +0.000 C 
ATOM      9  O   UNL     1       9.827   1.282  -0.236  1.00  0.00    +0.000 OA
ATOM     10  C   UNL     1      10.965   0.494  -0.639  1.00  0.00    +0.000 C 
ATOM     11  C   UNL     1      11.572   1.147  -1.913  1.00  0.00    +0.000 C 
ATOM     12  C   UNL     1      12.360   2.302  -1.305  1.00  0.00    +0.000 C 
ATOM     13  C   UNL     1      12.892   1.694   0.007  1.00  0.00    +0.000 C 
ATOM     14  O   UNL     1      11.956   0.667   0.394  1.00  0.00    +0.000 OA
ATOM     15  C   UNL     1      12.925   2.735   1.129  1.00  0.00    +0.000 C 
ATOM     16  C   UNL     1      14.266   1.024  -0.097  1.00  0.00    +0.000 C 
ATOM     17  C   UNL     1      13.396   2.946  -2.215  1.00  0.00    +0.000 C 
ATOM     18  C   UNL     1       7.194  -1.199  -1.112  1.00  0.00    +0.000 C 
ATOM     19  O   UNL     1       7.571  -1.958  -2.007  1.00  0.00    +0.000 OA
ATOM     20  C   UNL     1       5.740  -0.759  -1.045  1.00  0.00    +0.000 C 
ATOM     21  C   UNL     1       5.178  -0.732   0.391  1.00  0.00    +0.000 C 
ATOM     22  C   UNL     1       6.126   0.056   1.349  1.00  0.00    +0.000 C 
ATOM     23  C   UNL     1       5.595   0.038   2.794  1.00  0.00    +0.000 C 
ATOM     24  C   UNL     1       4.163   0.557   2.890  1.00  0.00    +0.000 C 
ATOM     25  C   UNL     1       3.215  -0.194   1.947  1.00  0.00    +0.000 C 
ATOM     26  C   UNL     1       3.697  -0.155   0.458  1.00  0.00    +0.000 C 
ATOM     27  C   UNL     1       2.718  -1.054  -0.358  1.00  0.00    +0.000 C 
ATOM     28  C   UNL     1       1.258  -0.801  -0.089  1.00  0.00    +0.000 A 
ATOM     29  C   UNL     1       0.817  -0.209   1.092  1.00  0.00    +0.000 A 
ATOM     30  C   UNL     1       1.776   0.320   2.119  1.00  0.00    +0.000 C 
ATOM     31  N   UNL     1      -0.502  -0.014   1.341  1.00  0.00    +0.000 NA
ATOM     32  C   UNL     1      -1.373  -0.439   0.392  1.00  0.00    +0.000 A 
ATOM     33  C   UNL     1      -2.836  -0.268   0.704  1.00  0.00    +0.000 C 
ATOM     34  C   UNL     1      -3.789  -0.364  -0.524  1.00  0.00    +0.000 C 
ATOM     35  C   UNL     1      -3.340  -1.601  -1.360  1.00  0.00    +0.000 C 
ATOM     36  C   UNL     1      -4.281  -1.888  -2.533  1.00  0.00    +0.000 C 
ATOM     37  C   UNL     1      -5.711  -2.106  -2.054  1.00  0.00    +0.000 C 
ATOM     38  C   UNL     1      -6.239  -0.936  -1.208  1.00  0.00    +0.000 C 
ATOM     39  C   UNL     1      -5.269  -0.608  -0.036  1.00  0.00    +0.000 C 
ATOM     40  C   UNL     1      -5.834   0.548   0.824  1.00  0.00    +0.000 C 
ATOM     41  C   UNL     1      -7.223   0.216   1.397  1.00  0.00    +0.000 C 
ATOM     42  C   UNL     1      -8.252  -0.181   0.303  1.00  0.00    +0.000 C 
ATOM     43  C   UNL     1      -7.638  -1.174  -0.683  1.00  0.00    +0.000 C 
ATOM     44  C   UNL     1      -8.522  -2.130  -1.014  1.00  0.00    +0.000 C 
ATOM     45  C   UNL     1      -9.801  -2.018  -0.253  1.00  0.00    +0.000 C 
ATOM     46  C   UNL     1      -9.454  -1.045   0.880  1.00  0.00    +0.000 C 
ATOM     47  C   UNL     1     -10.806  -0.366   1.151  1.00  0.00    +0.000 C 
ATOM     48  C   UNL     1     -11.568  -0.528  -0.195  1.00  0.00    +0.000 C 
ATOM     49  O   UNL     1     -10.830  -1.440  -1.036  1.00  0.00    +0.000 OA
ATOM     50  C   UNL     1     -13.034  -1.008  -0.165  1.00  0.00    +0.000 C 
ATOM     51  C   UNL     1     -13.809   0.277  -0.005  1.00  0.00    +0.000 C 
ATOM     52  C   UNL     1     -12.955   1.291  -0.775  1.00  0.00    +0.000 C 
ATOM     53  O   UNL     1     -11.612   0.763  -0.831  1.00  0.00    +0.000 OA
ATOM     54  C   UNL     1     -13.441   1.475  -2.217  1.00  0.00    +0.000 C 
ATOM     55  C   UNL     1     -11.527  -0.965   2.366  1.00  0.00    +0.000 C 
ATOM     56  C   UNL     1      -8.672   1.061  -0.516  1.00  0.00    +0.000 C 
ATOM     57  C   UNL     1      -1.889  -1.485  -1.853  1.00  0.00    +0.000 C 
ATOM     58  C   UNL     1      -0.933  -1.048  -0.781  1.00  0.00    +0.000 A 
ATOM     59  N   UNL     1       0.386  -1.226  -1.038  1.00  0.00    +0.000 NA
ATOM     60  C   UNL     1      -3.680   0.954  -1.334  1.00  0.00    +0.000 C 
ATOM     61  C   UNL     1       3.627   1.285  -0.122  1.00  0.00    +0.000 C 
ENDROOT
BRANCH  11  62
ATOM     62  O   UNL     1      12.412   0.277  -2.663  1.00  0.00    +0.000 OA
ATOM     63  H   UNL     1      12.646   0.729  -3.492  1.00  0.00    +0.000 HD
ENDBRANCH  11  62
BRANCH  50  64
ATOM     64  O   UNL     1     -13.412  -1.609  -1.415  1.00  0.00    +0.000 OA
ATOM     65  H   UNL     1     -12.569  -1.797  -1.879  1.00  0.00    +0.000 HD
ENDBRANCH  50  64
BRANCH  46  66
ATOM     66  O   UNL     1      -9.031  -1.822   2.017  1.00  0.00    +0.000 OA
ATOM     67  H   UNL     1      -8.299  -2.399   1.734  1.00  0.00    +0.000 HD
ENDBRANCH  46  66
BRANCH  41  68
ATOM     68  O   UNL     1      -7.690   1.327   2.165  1.00  0.00    +0.000 OA
ATOM     69  H   UNL     1      -7.547   2.141   1.652  1.00  0.00    +0.000 HD
ENDBRANCH  41  68
BRANCH  21  70
ATOM     70  O   UNL     1       5.094  -2.101   0.840  1.00  0.00    +0.000 OA
ATOM     71  H   UNL     1       5.982  -2.425   1.077  1.00  0.00    +0.000 HD
ENDBRANCH  21  70
BRANCH  52  72
ATOM     72  C   UNL     1     -12.910   2.654  -0.060  1.00  0.00    +0.000 C 
BRANCH  72  73
ATOM     73  O   UNL     1     -14.211   3.200   0.109  1.00  0.00    +0.000 OA
ATOM     74  H   UNL     1     -14.101   4.076   0.519  1.00  0.00    +0.000 HD
ENDBRANCH  72  73
ENDBRANCH  52  72
TORSDOF 7
