REMARK  Name = /srv/my_project/app/compsite/backup/Dave/CORINA_stuff/newPDBs/SANC00578.pdb
AUTHORGENERATED BY OPEN BABEL 2.3.2
REMARK  8 active torsions:
REMARK  status: ('A' for Active; 'I' for Inactive)
REMARK    1  A    between atoms: C_1  and  C_2
REMARK    2  A    between atoms: C_2  and  C_3
REMARK    3  A    between atoms: C_2  and  C_4
REMARK    4  A    between atoms: C_9  and  C_10
REMARK    5  A    between atoms: C_14  and  C_16
REMARK    6  A    between atoms: C_16  and  O_17
REMARK    7  A    between atoms: C_22  and  C_24
REMARK    8  A    between atoms: C_25  and  O_27
REMARK                            x       y       z     vdW  Elec       q    Type
REMARK                         _______ _______ _______ _____ _____    ______ ____
ROOT
ATOM      1  C   UNL     1      -2.445  -0.054   0.649  1.00  0.00    +0.000 C 
ATOM      2  C   UNL     1      -1.669  -0.686   1.554  1.00  0.00    +0.000 C 
ATOM      3  C   UNL     1      -1.306  -2.109   1.674  1.00  0.00    +0.000 C 
ATOM      4  O   UNL     1      -0.036  -2.490   2.237  1.00  0.00    +0.000 OA
ATOM      5  C   UNL     1      -0.179  -2.721   0.832  1.00  0.00    +0.000 C 
ATOM      6  C   UNL     1      -0.258  -4.175   0.475  1.00  0.00    +0.000 C 
ATOM      7  C   UNL     1       0.723  -1.860  -0.019  1.00  0.00    +0.000 C 
ATOM      8  C   UNL     1       2.215  -2.078   0.239  1.00  0.00    +0.000 C 
ATOM      9  C   UNL     1       3.107  -1.058  -0.494  1.00  0.00    +0.000 C 
ATOM     10  C   UNL     1       3.366   0.239   0.297  1.00  0.00    +0.000 C 
ATOM     11  C   UNL     1       2.129   1.119   0.430  1.00  0.00    +0.000 C 
ATOM     12  O   UNL     1       1.555   1.205   1.520  1.00  0.00    +0.000 OA
ATOM     13  C   UNL     1       1.607   1.885  -0.776  1.00  0.00    +0.000 C 
ATOM     14  C   UNL     1       0.076   1.990  -0.798  1.00  0.00    +0.000 C 
ATOM     15  C   UNL     1      -0.533   3.029   0.180  1.00  0.00    +0.000 C 
ATOM     16  C   UNL     1      -1.248   4.125  -0.625  1.00  0.00    +0.000 C 
ATOM     17  C   UNL     1      -1.492   2.426   1.257  1.00  0.00    +0.000 C 
ATOM     18  C   UNL     1      -2.578   1.470   0.661  1.00  0.00    +0.000 C 
ATOM     19  O   UNL     1      -3.557   1.973   0.094  1.00  0.00    +0.000 OA
ENDROOT
BRANCH   1  21
ATOM     20  C   UNL     1      -3.724  -2.164  -0.221  1.00  0.00    +0.000 C 
ATOM     21  C   UNL     1      -3.286  -0.714  -0.452  1.00  0.00    +0.000 C 
ATOM     22  C   UNL     1      -2.590  -0.598  -1.812  1.00  0.00    +0.000 C 
ENDBRANCH   1  21
BRANCH  17  23
ATOM     23  O   UNL     1      -0.752   2.026   2.394  1.00  0.00    +0.000 OA
ATOM     24  H   UNL     1       0.106   1.646   2.102  1.00  0.00    +0.000 HD
ENDBRANCH  17  23
BRANCH  10  25
ATOM     25  C   UNL     1       4.540   1.055  -0.253  1.00  0.00    +0.000 C 
BRANCH  25  26
ATOM     26  O   UNL     1       4.441   1.220  -1.661  1.00  0.00    +0.000 OA
ATOM     27  H   UNL     1       5.254   1.667  -1.956  1.00  0.00    +0.000 HD
ENDBRANCH  25  26
ENDBRANCH  10  25
TORSDOF 4
