REMARK  Name = /srv/my_project/app/compsite/backup/Dave/CORINA_stuff/newPDBs/SANC00504.pdb
AUTHORGENERATED BY OPEN BABEL 2.3.2
REMARK  43 active torsions:
REMARK  status: ('A' for Active; 'I' for Inactive)
REMARK    1  A    between atoms: C_2  and  O_3
REMARK    2  A    between atoms: O_3  and  C_4
REMARK    3  A    between atoms: C_15  and  O_17
REMARK    4  A    between atoms: O_17  and  C_18
REMARK    5  A    between atoms: C_21  and  C_23
REMARK    6  A    between atoms: C_23  and  O_24
REMARK    7  A    between atoms: O_24  and  C_25
REMARK    8  A    between atoms: C_28  and  C_30
REMARK    9  A    between atoms: C_30  and  O_31
REMARK   10  A    between atoms: C_32  and  O_34
REMARK   11  A    between atoms: C_35  and  O_37
REMARK   12  A    between atoms: C_38  and  O_40
REMARK   13  A    between atoms: C_41  and  O_43
REMARK   14  A    between atoms: C_44  and  O_46
REMARK   15  A    between atoms: C_47  and  O_49
REMARK   16  A    between atoms: C_52  and  C_53
REMARK   17  A    between atoms: C_58  and  C_59
REMARK   18  A    between atoms: C_60  and  O_61
REMARK   19  A    between atoms: C_60  and  C_62
REMARK   20  A    between atoms: C_62  and  C_64
REMARK   21  A    between atoms: C_62  and  C_65
REMARK   22  A    between atoms: C_65  and  C_67
REMARK   23  A    between atoms: C_67  and  C_68
REMARK   24  A    between atoms: C_68  and  C_69
REMARK   25  A    between atoms: C_69  and  C_70
REMARK   26  A    between atoms: C_69  and  C_71
REMARK   27  A    between atoms: C_74  and  O_76
REMARK   28  A    between atoms: C_77  and  O_79
REMARK   29  A    between atoms: O_79  and  C_80
REMARK   30  A    between atoms: C_84  and  O_86
REMARK   31  A    between atoms: C_87  and  O_89
REMARK   32  A    between atoms: C_90  and  O_92
REMARK   33  A    between atoms: O_92  and  C_93
REMARK   34  A    between atoms: C_93  and  C_95
REMARK   35  A    between atoms: C_97  and  O_98
REMARK   36  A    between atoms: O_98  and  C_99
REMARK   37  A    between atoms: C_100  and  O_101
REMARK   38  A    between atoms: O_101  and  C_102
REMARK   39  A    between atoms: C_103  and  O_104
REMARK   40  A    between atoms: O_104  and  C_105
REMARK   41  A    between atoms: C_107  and  O_109
REMARK   42  A    between atoms: O_109  and  C_110
REMARK   43  A    between atoms: C_110  and  C_111
REMARK                            x       y       z     vdW  Elec       q    Type
REMARK                         _______ _______ _______ _____ _____    ______ ____
ROOT
ATOM      1  C   UNL     1       2.534   4.200  -1.541  1.00  0.00    +0.000 C 
ATOM      2  C   UNL     1       1.782   3.578  -0.332  1.00  0.00    +0.000 C 
ATOM      3  C   UNL     1       2.479   2.248  -0.056  1.00  0.00    +0.000 C 
ATOM      4  C   UNL     1       1.720   1.176   0.743  1.00  0.00    +0.000 C 
ATOM      5  C   UNL     1       1.310   1.709   2.121  1.00  0.00    +0.000 C 
ATOM      6  C   UNL     1       0.840   0.631   3.047  1.00  0.00    +0.000 C 
ATOM      7  C   UNL     1       1.061  -0.683   2.865  1.00  0.00    +0.000 C 
ATOM      8  C   UNL     1       0.524  -1.685   3.870  1.00  0.00    +0.000 C 
ATOM      9  C   UNL     1       1.526  -2.789   4.255  1.00  0.00    +0.000 C 
ATOM     10  C   UNL     1       2.931  -2.471   3.742  1.00  0.00    +0.000 C 
ATOM     11  C   UNL     1       2.953  -2.250   2.225  1.00  0.00    +0.000 C 
ATOM     12  C   UNL     1       1.880  -1.242   1.694  1.00  0.00    +0.000 C 
ATOM     13  C   UNL     1       0.904  -2.001   0.761  1.00  0.00    +0.000 C 
ATOM     14  C   UNL     1       2.619  -0.085   0.906  1.00  0.00    +0.000 C 
ATOM     15  C   UNL     1       3.243  -0.544  -0.441  1.00  0.00    +0.000 C 
ATOM     16  C   UNL     1       3.911   0.599  -1.228  1.00  0.00    +0.000 C 
ATOM     17  C   UNL     1       2.942   1.775  -1.458  1.00  0.00    +0.000 C 
ATOM     18  C   UNL     1       1.751   1.294  -2.328  1.00  0.00    +0.000 C 
ATOM     19  C   UNL     1       3.575   3.112  -1.991  1.00  0.00    +0.000 C 
ENDROOT
BRANCH  19  20
ATOM     20  C   UNL     1       4.104   3.173  -3.449  1.00  0.00    +0.000 C 
ATOM     21  C   UNL     1       4.642   4.564  -3.827  1.00  0.00    +0.000 C 
BRANCH  20  22
ATOM     22  C   UNL     1       3.209   2.704  -4.601  1.00  0.00    +0.000 C 
ATOM     23  O   UNL     1       2.203   3.314  -4.956  1.00  0.00    +0.000 OA
BRANCH  22  24
ATOM     24  C   UNL     1       3.716   1.490  -5.380  1.00  0.00    +0.000 C 
BRANCH  24  25
ATOM     25  C   UNL     1       2.731   1.028  -6.456  1.00  0.00    +0.000 C 
BRANCH  25  26
ATOM     26  C   UNL     1       3.115  -0.315  -7.103  1.00  0.00    +0.000 C 
ATOM     27  C   UNL     1       4.488  -0.270  -7.777  1.00  0.00    +0.000 C 
ATOM     28  C   UNL     1       2.049  -0.721  -8.127  1.00  0.00    +0.000 C 
ENDBRANCH  25  26
ENDBRANCH  24  25
ENDBRANCH  22  24
ENDBRANCH  20  22
ENDBRANCH  19  20
BRANCH  19  29
ATOM     29  O   UNL     1       4.753   3.392  -1.168  1.00  0.00    +0.000 OA
ATOM     30  H   UNL     1       5.454   2.748  -1.379  1.00  0.00    +0.000 HD
ENDBRANCH  19  29
BRANCH   9  31
ATOM     31  O   UNL     1       1.149  -4.051   3.685  1.00  0.00    +0.000 OA
BRANCH  31  32
ATOM     32  C   UNL     1       0.121  -4.731   4.415  1.00  0.00    +0.000 C 
ATOM     33  O   UNL     1       0.601  -5.157   5.686  1.00  0.00    +0.000 OA
ATOM     34  C   UNL     1      -0.389  -5.866   6.449  1.00  0.00    +0.000 C 
ATOM     35  C   UNL     1      -0.868  -7.131   5.703  1.00  0.00    +0.000 C 
ATOM     36  C   UNL     1      -1.335  -6.760   4.292  1.00  0.00    +0.000 C 
ATOM     37  C   UNL     1      -0.274  -5.949   3.562  1.00  0.00    +0.000 C 
BRANCH  37  38
ATOM     38  O   UNL     1      -0.789  -5.549   2.282  1.00  0.00    +0.000 OA
ATOM     39  H   UNL     1      -0.110  -4.946   1.916  1.00  0.00    +0.000 HD
ENDBRANCH  37  38
BRANCH  35  40
ATOM     40  O   UNL     1      -1.959  -7.786   6.367  1.00  0.00    +0.000 OA
ATOM     41  H   UNL     1      -2.274  -8.456   5.725  1.00  0.00    +0.000 HD
ENDBRANCH  35  40
BRANCH  36  42
ATOM     42  O   UNL     1      -1.632  -7.964   3.567  1.00  0.00    +0.000 OA
ATOM     43  H   UNL     1      -1.786  -7.664   2.645  1.00  0.00    +0.000 HD
ENDBRANCH  36  42
BRANCH  34  44
ATOM     44  C   UNL     1       0.230  -6.203   7.816  1.00  0.00    +0.000 C 
BRANCH  44  45
ATOM     45  O   UNL     1      -0.748  -6.813   8.644  1.00  0.00    +0.000 OA
BRANCH  45  46
ATOM     46  C   UNL     1      -0.286  -7.167   9.944  1.00  0.00    +0.000 C 
ATOM     47  O   UNL     1       0.860  -8.024   9.885  1.00  0.00    +0.000 OA
ATOM     48  C   UNL     1       0.585  -9.436   9.889  1.00  0.00    +0.000 C 
ATOM     49  C   UNL     1      -0.734  -9.757   9.174  1.00  0.00    +0.000 C 
ATOM     50  C   UNL     1      -1.907  -9.101   9.928  1.00  0.00    +0.000 C 
ATOM     51  C   UNL     1      -1.487  -7.813  10.667  1.00  0.00    +0.000 C 
BRANCH  49  52
ATOM     52  O   UNL     1      -0.957 -11.165   9.046  1.00  0.00    +0.000 OA
ATOM     53  H   UNL     1      -1.887 -11.261   8.756  1.00  0.00    +0.000 HD
ENDBRANCH  49  52
BRANCH  50  54
ATOM     54  O   UNL     1      -2.959  -8.849   8.977  1.00  0.00    +0.000 OA
ATOM     55  H   UNL     1      -2.605  -8.239   8.291  1.00  0.00    +0.000 HD
ENDBRANCH  50  54
BRANCH  51  56
ATOM     56  O   UNL     1      -1.161  -8.127  12.031  1.00  0.00    +0.000 OA
ATOM     57  H   UNL     1      -0.879  -7.304  12.466  1.00  0.00    +0.000 HD
ENDBRANCH  51  56
BRANCH  48  58
ATOM     58  C   UNL     1       1.778 -10.154   9.237  1.00  0.00    +0.000 C 
BRANCH  58  59
ATOM     59  O   UNL     1       1.686 -11.571   9.340  1.00  0.00    +0.000 OA
ATOM     60  H   UNL     1       0.751 -11.805   9.149  1.00  0.00    +0.000 HD
ENDBRANCH  58  59
ENDBRANCH  48  58
ENDBRANCH  45  46
ENDBRANCH  44  45
ENDBRANCH  34  44
ENDBRANCH  31  32
ENDBRANCH   9  31
BRANCH   1  61
ATOM     61  O   UNL     1       1.582   4.478  -2.551  1.00  0.00    +0.000 OA
BRANCH  61  62
ATOM     62  C   UNL     1       1.068   5.813  -2.534  1.00  0.00    +0.000 C 
ATOM     63  O   UNL     1       0.585   6.174  -1.246  1.00  0.00    +0.000 OA
ATOM     64  C   UNL     1       0.166   7.540  -1.171  1.00  0.00    +0.000 C 
ATOM     65  C   UNL     1      -0.360   8.112  -2.493  1.00  0.00    +0.000 C 
ATOM     66  C   UNL     1      -1.049   7.016  -3.316  1.00  0.00    +0.000 C 
ATOM     67  C   UNL     1      -0.066   5.866  -3.587  1.00  0.00    +0.000 C 
BRANCH  65  68
ATOM     68  O   UNL     1      -1.228   9.218  -2.246  1.00  0.00    +0.000 OA
ATOM     69  H   UNL     1      -2.142   8.862  -2.192  1.00  0.00    +0.000 HD
ENDBRANCH  65  68
BRANCH  66  70
ATOM     70  O   UNL     1      -2.127   6.483  -2.533  1.00  0.00    +0.000 OA
BRANCH  70  71
ATOM     71  C   UNL     1      -3.429   6.735  -3.065  1.00  0.00    +0.000 C 
ATOM     72  O   UNL     1      -3.796   8.053  -2.664  1.00  0.00    +0.000 OA
ATOM     73  C   UNL     1      -5.162   8.201  -2.265  1.00  0.00    +0.000 C 
ATOM     74  C   UNL     1      -6.134   7.340  -3.076  1.00  0.00    +0.000 C 
ATOM     75  C   UNL     1      -5.802   5.850  -2.919  1.00  0.00    +0.000 C 
ATOM     76  C   UNL     1      -4.337   5.624  -2.513  1.00  0.00    +0.000 C 
BRANCH  75  77
ATOM     77  O   UNL     1      -6.680   5.304  -1.921  1.00  0.00    +0.000 OA
ATOM     78  H   UNL     1      -6.345   4.413  -1.685  1.00  0.00    +0.000 HD
ENDBRANCH  75  77
BRANCH  74  79
ATOM     79  O   UNL     1      -6.030   7.710  -4.458  1.00  0.00    +0.000 OA
ATOM     80  H   UNL     1      -6.829   7.375  -4.903  1.00  0.00    +0.000 HD
ENDBRANCH  74  79
BRANCH  76  81
ATOM     81  O   UNL     1      -3.846   4.361  -3.040  1.00  0.00    +0.000 OA
BRANCH  81  82
ATOM     82  C   UNL     1      -4.185   3.250  -2.352  1.00  0.00    +0.000 C 
ATOM     83  O   UNL     1      -4.997   3.205  -1.441  1.00  0.00    +0.000 OA
BRANCH  82  84
ATOM     84  C   UNL     1      -3.421   2.077  -2.845  1.00  0.00    +0.000 A 
ATOM     85  C   UNL     1      -2.943   2.008  -4.161  1.00  0.00    +0.000 A 
ATOM     86  C   UNL     1      -2.307   0.850  -4.616  1.00  0.00    +0.000 A 
ATOM     87  C   UNL     1      -2.125  -0.222  -3.723  1.00  0.00    +0.000 A 
ATOM     88  C   UNL     1      -2.562  -0.146  -2.386  1.00  0.00    +0.000 A 
ATOM     89  C   UNL     1      -3.226   1.005  -1.962  1.00  0.00    +0.000 A 
BRANCH  87  90
ATOM     90  O   UNL     1      -1.588  -1.409  -4.173  1.00  0.00    +0.000 OA
ATOM     91  C   UNL     1      -0.164  -1.353  -4.145  1.00  0.00    +0.000 C 
ENDBRANCH  87  90
BRANCH  86  92
ATOM     92  O   UNL     1      -1.861   0.653  -5.900  1.00  0.00    +0.000 OA
ATOM     93  C   UNL     1      -1.878   1.774  -6.777  1.00  0.00    +0.000 C 
ENDBRANCH  86  92
BRANCH  88  94
ATOM     94  O   UNL     1      -2.309  -1.242  -1.601  1.00  0.00    +0.000 OA
ATOM     95  C   UNL     1      -2.668  -1.152  -0.227  1.00  0.00    +0.000 C 
ENDBRANCH  88  94
ENDBRANCH  82  84
ENDBRANCH  81  82
ENDBRANCH  76  81
ENDBRANCH  70  71
ENDBRANCH  66  70
BRANCH  67  96
ATOM     96  O   UNL     1       0.549   6.013  -4.889  1.00  0.00    +0.000 OA
BRANCH  96  97
ATOM     97  C   UNL     1      -0.191   5.537  -5.927  1.00  0.00    +0.000 C 
ATOM     98  C   UNL     1       0.617   5.543  -7.188  1.00  0.00    +0.000 C 
ATOM     99  O   UNL     1      -1.367   5.204  -5.863  1.00  0.00    +0.000 OA
ENDBRANCH  96  97
ENDBRANCH  67  96
ENDBRANCH  61  62
ENDBRANCH   1  61
TORSDOF 34
