REMARK  Name = SANCDB_00743_minRM1.pdb
AUTHORGENERATED BY OPEN BABEL 2.3.2
REMARK  10 active torsions:
REMARK  status: ('A' for Active; 'I' for Inactive)
REMARK    1  A    between atoms: C_1  and  C_2
REMARK    2  A    between atoms: C_2  and  C_3
REMARK    3  A    between atoms: C_4  and  O_5
REMARK    4  A    between atoms: C_8  and  C_9
REMARK    5  A    between atoms: C_13  and  C_14
REMARK    6  A    between atoms: C_19  and  C_20
REMARK    7  A    between atoms: C_23  and  C_24
REMARK    8  A    between atoms: C_24  and  O_25
REMARK    9  A    between atoms: C_28  and  C_29
REMARK   10  A    between atoms: C_29  and  C_30
REMARK                            x       y       z     vdW  Elec       q    Type
REMARK                         _______ _______ _______ _____ _____    ______ ____
ROOT
ATOM      1  C   UNL     1       5.471   1.496  -0.954  1.00  0.00    +0.000 C 
ATOM      2  C   UNL     1       4.948   0.083  -0.630  1.00  0.00    +0.000 C 
ATOM      3  C   UNL     1       5.572  -0.858  -1.700  1.00  0.00    +0.000 C 
ATOM      4  C   UNL     1       5.445  -0.401   0.766  1.00  0.00    +0.000 C 
ATOM      5  C   UNL     1       4.730   0.267   1.935  1.00  0.00    +0.000 C 
ATOM      6  C   UNL     1       3.212   0.132   1.849  1.00  0.00    +0.000 C 
ATOM      7  C   UNL     1       2.594   0.647   0.512  1.00  0.00    +0.000 C 
ATOM      8  C   UNL     1       2.704   2.191   0.516  1.00  0.00    +0.000 C 
ATOM      9  C   UNL     1       3.378  -0.042  -0.670  1.00  0.00    +0.000 C 
ATOM     10  C   UNL     1       2.734   0.289  -2.031  1.00  0.00    +0.000 C 
ATOM     11  C   UNL     1       1.285  -0.209  -2.096  1.00  0.00    +0.000 C 
ATOM     12  C   UNL     1       0.357   0.337  -0.976  1.00  0.00    +0.000 C 
ATOM     13  C   UNL     1       0.112   1.842  -1.296  1.00  0.00    +0.000 C 
ATOM     14  C   UNL     1       1.079   0.154   0.423  1.00  0.00    +0.000 C 
ATOM     15  C   UNL     1       0.177   0.624   1.587  1.00  0.00    +0.000 C 
ATOM     16  C   UNL     1      -1.204  -0.038   1.593  1.00  0.00    +0.000 C 
ATOM     17  C   UNL     1      -1.934   0.105   0.253  1.00  0.00    +0.000 C 
ATOM     18  C   UNL     1      -1.064  -0.461  -0.943  1.00  0.00    +0.000 C 
ATOM     19  C   UNL     1      -0.833  -2.001  -0.766  1.00  0.00    +0.000 C 
ATOM     20  C   UNL     1      -1.867  -0.310  -2.283  1.00  0.00    +0.000 C 
ATOM     21  C   UNL     1      -3.310  -0.854  -2.236  1.00  0.00    +0.000 C 
ATOM     22  C   UNL     1      -4.094  -0.214  -1.085  1.00  0.00    +0.000 C 
ATOM     23  C   UNL     1      -3.358  -0.499   0.247  1.00  0.00    +0.000 C 
ATOM     24  C   UNL     1      -4.394  -0.093   1.323  1.00  0.00    +0.000 C 
ATOM     25  C   UNL     1      -5.760  -0.413   0.657  1.00  0.00    +0.000 C 
ATOM     26  C   UNL     1      -5.456  -0.849  -0.786  1.00  0.00    +0.000 C 
ENDROOT
BRANCH  24  27
ATOM     27  C   UNL     1      -4.267  -0.755   2.687  1.00  0.00    +0.000 C 
ATOM     28  C   UNL     1      -4.114  -2.251   2.757  1.00  0.00    +0.000 C 
ATOM     29  C   UNL     1      -4.311  -0.022   3.813  1.00  0.00    +0.000 C 
ENDBRANCH  24  27
BRANCH   4  30
ATOM     30  O   UNL     1       6.843  -0.169   0.942  1.00  0.00    +0.000 OA
ATOM     31  H   UNL     1       7.324  -0.796   0.377  1.00  0.00    +0.000 HD
ENDBRANCH   4  30
BRANCH  22  32
ATOM     32  C   UNL     1      -4.339   1.271  -1.401  1.00  0.00    +0.000 C 
ATOM     33  O   UNL     1      -4.049   2.240  -0.720  1.00  0.00    +0.000 OA
BRANCH  32  34
ATOM     34  O   UNL     1      -4.979   1.459  -2.574  1.00  0.00    +0.000 OA
ATOM     35  H   UNL     1      -5.077   2.433  -2.634  1.00  0.00    +0.000 HD
ENDBRANCH  32  34
ENDBRANCH  22  32
TORSDOF 4
