REMARK  Name = /srv/my_project/app/compsite/backup/Dave/CORINA_stuff/newPDBs/SANC00572.pdb
AUTHORGENERATED BY OPEN BABEL 2.3.2
REMARK  9 active torsions:
REMARK  status: ('A' for Active; 'I' for Inactive)
REMARK    1  A    between atoms: C_1  and  O_2
REMARK    2  A    between atoms: O_2  and  C_3
REMARK    3  A    between atoms: C_6  and  C_7
REMARK    4  A    between atoms: C_7  and  C_8
REMARK    5  A    between atoms: C_14  and  O_15
REMARK    6  A    between atoms: C_16  and  O_17
REMARK    7  A    between atoms: O_17  and  C_18
REMARK    8  A    between atoms: C_19  and  O_20
REMARK    9  A    between atoms: C_25  and  O_26
REMARK                            x       y       z     vdW  Elec       q    Type
REMARK                         _______ _______ _______ _____ _____    ______ ____
ROOT
ATOM      1  C   UNL     1       0.185   0.395   2.424  1.00  0.00    +0.000 C 
ATOM      2  C   UNL     1      -0.016  -1.102   2.256  1.00  0.00    +0.000 C 
ATOM      3  O   UNL     1      -1.386  -1.449   2.478  1.00  0.00    +0.000 OA
ATOM      4  C   UNL     1      -2.218  -0.830   1.580  1.00  0.00    +0.000 A 
ATOM      5  C   UNL     1      -3.415  -1.497   1.308  1.00  0.00    +0.000 A 
ATOM      6  C   UNL     1      -4.308  -0.950   0.399  1.00  0.00    +0.000 A 
ATOM      7  C   UNL     1      -4.006   0.244  -0.252  1.00  0.00    +0.000 A 
ATOM      8  C   UNL     1      -2.837   0.945   0.062  1.00  0.00    +0.000 A 
ATOM      9  C   UNL     1      -1.931   0.410   0.986  1.00  0.00    +0.000 A 
ATOM     10  C   UNL     1      -0.696   1.121   1.423  1.00  0.00    +0.000 C 
ATOM     11  O   UNL     1      -0.445   2.267   1.064  1.00  0.00    +0.000 OA
ENDROOT
BRANCH   6  12
ATOM     12  O   UNL     1      -5.482  -1.604   0.162  1.00  0.00    +0.000 OA
ATOM     13  H   UNL     1      -6.035  -0.997  -0.366  1.00  0.00    +0.000 HD
ENDBRANCH   6  12
BRANCH   7  14
ATOM     14  O   UNL     1      -4.892   0.763  -1.166  1.00  0.00    +0.000 OA
ATOM     15  C   UNL     1      -4.570   0.278  -2.476  1.00  0.00    +0.000 C 
ENDBRANCH   7  14
BRANCH   8  16
ATOM     16  O   UNL     1      -2.617   2.146  -0.553  1.00  0.00    +0.000 OA
ATOM     17  H   UNL     1      -3.455   2.417  -0.970  1.00  0.00    +0.000 HD
ENDBRANCH   8  16
BRANCH   1  18
ATOM     18  C   UNL     1       1.660   0.822   2.349  1.00  0.00    +0.000 C 
BRANCH  18  22
ATOM     19  C   UNL     1       3.818  -0.600  -1.130  1.00  0.00    +0.000 A 
ATOM     20  C   UNL     1       3.050   0.559  -1.208  1.00  0.00    +0.000 A 
ATOM     21  C   UNL     1       2.358   1.020  -0.079  1.00  0.00    +0.000 A 
ATOM     22  C   UNL     1       2.422   0.330   1.140  1.00  0.00    +0.000 A 
ATOM     23  C   UNL     1       3.201  -0.831   1.217  1.00  0.00    +0.000 A 
ATOM     24  C   UNL     1       3.881  -1.281   0.090  1.00  0.00    +0.000 A 
BRANCH  19  26
ATOM     25  C   UNL     1       4.521  -0.480  -3.395  1.00  0.00    +0.000 C 
ATOM     26  O   UNL     1       4.541  -1.165  -2.148  1.00  0.00    +0.000 OA
ENDBRANCH  19  26
BRANCH  24  27
ATOM     27  O   UNL     1       4.625  -2.425   0.202  1.00  0.00    +0.000 OA
ATOM     28  H   UNL     1       5.020  -2.552  -0.682  1.00  0.00    +0.000 HD
ENDBRANCH  24  27
ENDBRANCH  18  22
ENDBRANCH   1  18
TORSDOF 7
