REMARK  Name = /srv/my_project/app/compsite/backup/Dave/CORINA_stuff/newPDBs/SANC00559.pdb
AUTHORGENERATED BY OPEN BABEL 2.3.2
REMARK  13 active torsions:
REMARK  status: ('A' for Active; 'I' for Inactive)
REMARK    1  A    between atoms: C_3  and  O_4
REMARK    2  A    between atoms: C_5  and  C_6
REMARK    3  A    between atoms: C_9  and  O_10
REMARK    4  A    between atoms: C_11  and  O_12
REMARK    5  A    between atoms: C_16  and  O_17
REMARK    6  A    between atoms: C_18  and  O_19
REMARK    7  A    between atoms: C_21  and  C_22
REMARK    8  A    between atoms: C_27  and  O_28
REMARK    9  A    between atoms: C_29  and  O_30
REMARK   10  A    between atoms: C_33  and  C_35
REMARK   11  A    between atoms: C_38  and  O_39
REMARK   12  A    between atoms: C_40  and  O_41
REMARK   13  A    between atoms: C_43  and  O_45
REMARK                            x       y       z     vdW  Elec       q    Type
REMARK                         _______ _______ _______ _____ _____    ______ ____
ROOT
ATOM      1  O   UNL     1       0.228   0.748   1.372  1.00  0.00    +0.000 OA
ATOM      2  C   UNL     1       1.251   0.582   0.719  1.00  0.00    +0.000 A 
ATOM      3  C   UNL     1       2.537   0.579   1.457  1.00  0.00    +0.000 A 
ATOM      4  C   UNL     1       3.683   0.570   0.761  1.00  0.00    +0.000 A 
ATOM      5  O   UNL     1       3.744   0.551  -0.618  1.00  0.00    +0.000 OA
ATOM      6  C   UNL     1       2.575   0.450  -1.333  1.00  0.00    +0.000 A 
ATOM      7  C   UNL     1       2.727   0.365  -2.716  1.00  0.00    +0.000 A 
ATOM      8  C   UNL     1       1.617   0.231  -3.530  1.00  0.00    +0.000 A 
ATOM      9  C   UNL     1       0.347   0.168  -2.980  1.00  0.00    +0.000 A 
ATOM     10  C   UNL     1       0.152   0.242  -1.579  1.00  0.00    +0.000 A 
ATOM     11  C   UNL     1       1.296   0.416  -0.754  1.00  0.00    +0.000 A 
ENDROOT
BRANCH  10  12
ATOM     12  C   UNL     1      -1.301   0.084  -1.099  1.00  0.00    +0.000 C 
ATOM     13  C   UNL     1      -1.534  -1.040  -0.109  1.00  0.00    +0.000 A 
ATOM     14  C   UNL     1      -0.958  -2.313  -0.306  1.00  0.00    +0.000 A 
ATOM     15  C   UNL     1      -1.152  -3.341   0.621  1.00  0.00    +0.000 A 
ATOM     16  C   UNL     1      -1.931  -3.105   1.742  1.00  0.00    +0.000 A 
ATOM     17  C   UNL     1      -2.529  -1.866   1.935  1.00  0.00    +0.000 A 
ATOM     18  C   UNL     1      -2.357  -0.840   1.006  1.00  0.00    +0.000 A 
ATOM     19  O   UNL     1      -3.007   0.338   1.277  1.00  0.00    +0.000 OA
ATOM     20  C   UNL     1      -3.247   1.171   0.123  1.00  0.00    +0.000 C 
ATOM     21  C   UNL     1      -1.924   1.421  -0.643  1.00  0.00    +0.000 C 
BRANCH  20  22
ATOM     22  C   UNL     1      -4.500   0.688  -0.611  1.00  0.00    +0.000 A 
ATOM     23  C   UNL     1      -4.604   0.595  -2.010  1.00  0.00    +0.000 A 
ATOM     24  C   UNL     1      -5.787   0.164  -2.627  1.00  0.00    +0.000 A 
ATOM     25  C   UNL     1      -6.884  -0.164  -1.845  1.00  0.00    +0.000 A 
ATOM     26  C   UNL     1      -6.809  -0.058  -0.462  1.00  0.00    +0.000 A 
ATOM     27  C   UNL     1      -5.639   0.365   0.155  1.00  0.00    +0.000 A 
BRANCH  25  28
ATOM     28  O   UNL     1      -8.064  -0.588  -2.389  1.00  0.00    +0.000 OA
ATOM     29  H   UNL     1      -7.952  -0.632  -3.354  1.00  0.00    +0.000 HD
ENDBRANCH  25  28
BRANCH  26  30
ATOM     30  O   UNL     1      -7.893  -0.368   0.308  1.00  0.00    +0.000 OA
ATOM     31  H   UNL     1      -8.575  -0.648  -0.334  1.00  0.00    +0.000 HD
ENDBRANCH  26  30
ENDBRANCH  20  22
BRANCH  16  32
ATOM     32  O   UNL     1      -2.116  -4.103   2.654  1.00  0.00    +0.000 OA
ATOM     33  H   UNL     1      -2.702  -3.707   3.330  1.00  0.00    +0.000 HD
ENDBRANCH  16  32
BRANCH  17  34
ATOM     34  O   UNL     1      -3.300  -1.684   3.054  1.00  0.00    +0.000 OA
ATOM     35  H   UNL     1      -3.614  -0.760   2.989  1.00  0.00    +0.000 HD
ENDBRANCH  17  34
BRANCH  21  36
ATOM     36  O   UNL     1      -2.092   2.317  -1.754  1.00  0.00    +0.000 OA
ATOM     37  H   UNL     1      -2.404   3.168  -1.396  1.00  0.00    +0.000 HD
ENDBRANCH  21  36
ENDBRANCH  10  12
BRANCH   4  38
ATOM     38  C   UNL     1       5.012   0.583   1.398  1.00  0.00    +0.000 A 
ATOM     39  C   UNL     1       5.941  -0.429   1.092  1.00  0.00    +0.000 A 
ATOM     40  C   UNL     1       7.218  -0.429   1.664  1.00  0.00    +0.000 A 
ATOM     41  C   UNL     1       7.567   0.592   2.538  1.00  0.00    +0.000 A 
ATOM     42  C   UNL     1       6.656   1.601   2.839  1.00  0.00    +0.000 A 
ATOM     43  C   UNL     1       5.385   1.606   2.280  1.00  0.00    +0.000 A 
BRANCH  41  44
ATOM     44  O   UNL     1       8.798   0.651   3.129  1.00  0.00    +0.000 OA
ATOM     45  H   UNL     1       9.306  -0.132   2.852  1.00  0.00    +0.000 HD
ENDBRANCH  41  44
BRANCH  42  46
ATOM     46  O   UNL     1       7.011   2.606   3.693  1.00  0.00    +0.000 OA
ATOM     47  H   UNL     1       7.924   2.386   3.965  1.00  0.00    +0.000 HD
ENDBRANCH  42  46
ENDBRANCH   4  38
BRANCH   3  48
ATOM     48  O   UNL     1       2.472   0.605   2.838  1.00  0.00    +0.000 OA
ATOM     49  H   UNL     1       1.513   0.625   3.046  1.00  0.00    +0.000 HD
ENDBRANCH   3  48
BRANCH   7  50
ATOM     50  O   UNL     1       3.959   0.409  -3.313  1.00  0.00    +0.000 OA
ATOM     51  H   UNL     1       4.613   0.545  -2.600  1.00  0.00    +0.000 HD
ENDBRANCH   7  50
BRANCH   8  52
ATOM     52  O   UNL     1       1.763   0.148  -4.884  1.00  0.00    +0.000 OA
ATOM     53  H   UNL     1       2.726   0.217  -5.041  1.00  0.00    +0.000 HD
ENDBRANCH   8  52
TORSDOF 13
