REMARK  Name = /srv/my_project/app/compsite/backup/Dave/CORINA_stuff/newPDBs/SANC00352.pdb
AUTHORGENERATED BY OPEN BABEL 2.3.2
REMARK  8 active torsions:
REMARK  status: ('A' for Active; 'I' for Inactive)
REMARK    1  A    between atoms: C_1  and  C_2
REMARK    2  A    between atoms: C_2  and  C_3
REMARK    3  A    between atoms: C_8  and  C_9
REMARK    4  A    between atoms: C_16  and  C_17
REMARK    5  A    between atoms: C_16  and  C_18
REMARK    6  A    between atoms: C_19  and  O_20
REMARK    7  A    between atoms: C_23  and  O_24
REMARK    8  A    between atoms: C_28  and  O_29
REMARK                            x       y       z     vdW  Elec       q    Type
REMARK                         _______ _______ _______ _____ _____    ______ ____
ROOT
ATOM      1  C   UNL     1       0.788   0.913  -0.269  1.00  0.00    +0.000 A 
ATOM      2  C   UNL     1       0.204   2.092  -0.536  1.00  0.00    +0.000 A 
ATOM      3  O   UNL     1      -1.138   2.377  -0.478  1.00  0.00    +0.000 OA
ATOM      4  C   UNL     1      -1.990   1.363  -0.123  1.00  0.00    +0.000 A 
ATOM      5  C   UNL     1      -3.351   1.662  -0.093  1.00  0.00    +0.000 A 
ATOM      6  C   UNL     1      -4.278   0.678   0.256  1.00  0.00    +0.000 A 
ATOM      7  O   UNL     1      -5.586   1.078   0.239  1.00  0.00    +0.000 OA
ATOM      8  C   UNL     1      -6.590   0.046   0.324  1.00  0.00    +0.000 C 
ATOM      9  C   UNL     1      -7.871   0.754   0.796  1.00  0.00    +0.000 C 
ATOM     10  C   UNL     1      -6.849  -0.507  -1.088  1.00  0.00    +0.000 C 
ATOM     11  C   UNL     1      -6.200  -1.043   1.350  1.00  0.00    +0.000 C 
ATOM     12  C   UNL     1      -4.847  -1.661   1.004  1.00  0.00    +0.000 C 
ATOM     13  C   UNL     1      -3.853  -0.608   0.609  1.00  0.00    +0.000 A 
ATOM     14  C   UNL     1      -2.482  -0.902   0.560  1.00  0.00    +0.000 A 
ATOM     15  C   UNL     1      -1.551   0.083   0.197  1.00  0.00    +0.000 A 
ATOM     16  C   UNL     1      -0.106  -0.198   0.148  1.00  0.00    +0.000 A 
ATOM     17  O   UNL     1       0.307  -1.314   0.452  1.00  0.00    +0.000 OA
ENDROOT
BRANCH   1  25
ATOM     18  C   UNL     1       8.234   0.876   0.790  1.00  0.00    +0.000 C 
ATOM     19  C   UNL     1       7.176  -0.195   0.502  1.00  0.00    +0.000 C 
ATOM     20  C   UNL     1       7.859  -1.479   0.016  1.00  0.00    +0.000 C 
ATOM     21  C   UNL     1       6.407  -0.488   1.770  1.00  0.00    +0.000 C 
ATOM     22  C   UNL     1       5.084  -0.339   1.880  1.00  0.00    +0.000 C 
ATOM     23  C   UNL     1       4.355   0.131   0.714  1.00  0.00    +0.000 A 
ATOM     24  C   UNL     1       2.964   0.296   0.761  1.00  0.00    +0.000 A 
ATOM     25  C   UNL     1       2.251   0.750  -0.361  1.00  0.00    +0.000 A 
ATOM     26  C   UNL     1       2.966   1.026  -1.537  1.00  0.00    +0.000 A 
ATOM     27  C   UNL     1       4.351   0.867  -1.591  1.00  0.00    +0.000 A 
ATOM     28  C   UNL     1       5.043   0.420  -0.465  1.00  0.00    +0.000 A 
ATOM     29  O   UNL     1       6.395   0.297  -0.609  1.00  0.00    +0.000 OA
BRANCH  26  30
ATOM     30  O   UNL     1       2.294   1.451  -2.652  1.00  0.00    +0.000 OA
ATOM     31  H   UNL     1       2.920   1.507  -3.394  1.00  0.00    +0.000 HD
ENDBRANCH  26  30
ENDBRANCH   1  25
BRANCH  11  32
ATOM     32  O   UNL     1      -7.195  -2.062   1.467  1.00  0.00    +0.000 OA
ATOM     33  H   UNL     1      -7.136  -2.642   0.688  1.00  0.00    +0.000 HD
ENDBRANCH  11  32
BRANCH  14  34
ATOM     34  O   UNL     1      -2.099  -2.181   0.877  1.00  0.00    +0.000 OA
ATOM     35  H   UNL     1      -1.118  -2.236   0.807  1.00  0.00    +0.000 HD
ENDBRANCH  14  34
TORSDOF 4
