REMARK  Name = /srv/my_project/app/compsite/backup/Dave/CORINA_stuff/newPDBs/SANC00543.pdb
AUTHORGENERATED BY OPEN BABEL 2.3.2
REMARK  19 active torsions:
REMARK  status: ('A' for Active; 'I' for Inactive)
REMARK    1  A    between atoms: C_2  and  C_3
REMARK    2  A    between atoms: C_3  and  C_4
REMARK    3  A    between atoms: C_4  and  C_5
REMARK    4  A    between atoms: C_6  and  C_7
REMARK    5  A    between atoms: C_8  and  C_9
REMARK    6  A    between atoms: C_9  and  C_10
REMARK    7  A    between atoms: C_10  and  C_11
REMARK    8  A    between atoms: C_11  and  C_12
REMARK    9  A    between atoms: C_12  and  C_13
REMARK   10  A    between atoms: C_13  and  C_14
REMARK   11  A    between atoms: C_14  and  C_15
REMARK   12  A    between atoms: C_15  and  C_16
REMARK   13  A    between atoms: C_16  and  C_17
REMARK   14  A    between atoms: C_17  and  N_18
REMARK   15  A    between atoms: N_18  and  C_19
REMARK   16  A    between atoms: N_18  and  C_20
REMARK   17  A    between atoms: C_20  and  C_21
REMARK   18  A    between atoms: C_21  and  N_22
REMARK   19  A    between atoms: N_22  and  C_23
REMARK                            x       y       z     vdW  Elec       q    Type
REMARK                         _______ _______ _______ _____ _____    ______ ____
ROOT
ATOM      1  C   UNL     1       1.127   0.136   1.068  1.00  0.00    +0.000 C 
ENDROOT
BRANCH   1   2
ATOM      2  C   UNL     1      -0.118   1.024   1.134  1.00  0.00    +0.000 C 
BRANCH   2   3
ATOM      3  C   UNL     1      -0.611   1.386  -0.269  1.00  0.00    +0.000 C 
BRANCH   3   4
ATOM      4  C   UNL     1      -1.782   2.374  -0.274  1.00  0.00    +0.000 C 
BRANCH   4   5
ATOM      5  C   UNL     1      -3.028   1.954   0.518  1.00  0.00    +0.000 C 
BRANCH   5   6
ATOM      6  C   UNL     1      -3.660   0.600   0.151  1.00  0.00    +0.000 C 
BRANCH   6   7
ATOM      7  N   UNL     1      -4.736   0.643  -0.861  1.00  0.00    +0.000 NA
ATOM      8  C   UNL     1      -5.359  -0.683  -0.953  1.00  0.00    +0.000 C 
BRANCH   7   9
ATOM      9  C   UNL     1      -4.260   1.117  -2.175  1.00  0.00    +0.000 C 
BRANCH   9  10
ATOM     10  C   UNL     1      -5.284   1.086  -3.342  1.00  0.00    +0.000 C 
BRANCH  10  11
ATOM     11  N   UNL     1      -5.312  -0.208  -4.041  1.00  0.00    +0.000 NA
ATOM     12  C   UNL     1      -6.269  -0.186  -5.138  1.00  0.00    +0.000 C 
ATOM     13  H   UNL     1      -4.383  -0.417  -4.403  1.00  0.00    +0.000 HD
ENDBRANCH  10  11
ENDBRANCH   9  10
ENDBRANCH   7   9
ENDBRANCH   6   7
ENDBRANCH   5   6
ENDBRANCH   4   5
ENDBRANCH   3   4
ENDBRANCH   2   3
ENDBRANCH   1   2
BRANCH   1  14
ATOM     14  C   UNL     1       1.602  -0.347   2.441  1.00  0.00    +0.000 C 
BRANCH  14  15
ATOM     15  C   UNL     1       1.988   0.750   3.442  1.00  0.00    +0.000 C 
BRANCH  15  16
ATOM     16  C   UNL     1       3.048   1.741   2.959  1.00  0.00    +0.000 C 
BRANCH  16  18
ATOM     17  C   UNL     1       5.374   0.553   2.410  1.00  0.00    +0.000 C 
ATOM     18  C   UNL     1       4.331   1.091   2.664  1.00  0.00    +0.000 C 
BRANCH  17  20
ATOM     19  C   UNL     1       6.768  -1.415   2.063  1.00  0.00    +0.000 C 
ATOM     20  C   UNL     1       6.602  -0.084   2.091  1.00  0.00    +0.000 C 
BRANCH  19  21
ATOM     21  C   UNL     1       5.731  -2.469   2.358  1.00  0.00    +0.000 C 
BRANCH  21  22
ATOM     22  C   UNL     1       5.646  -3.558   1.275  1.00  0.00    +0.000 C 
BRANCH  22  24
ATOM     23  C   UNL     1       4.396  -2.082  -0.399  1.00  0.00    +0.000 C 
ATOM     24  C   UNL     1       5.018  -3.215  -0.052  1.00  0.00    +0.000 C 
ENDBRANCH  22  24
ENDBRANCH  21  22
ENDBRANCH  19  21
ENDBRANCH  17  20
ENDBRANCH  16  18
ENDBRANCH  15  16
ENDBRANCH  14  15
ENDBRANCH   1  14
TORSDOF 17
