REMARK  Name = SANCDB_01001_minRM1.pdb
AUTHORGENERATED BY OPEN BABEL 2.3.2
REMARK  14 active torsions:
REMARK  status: ('A' for Active; 'I' for Inactive)
REMARK    1  A    between atoms: C_1  and  C_2
REMARK    2  A    between atoms: C_2  and  O_25
REMARK    3  A    between atoms: C_4  and  O_24
REMARK    4  A    between atoms: C_5  and  O_23
REMARK    5  A    between atoms: C_7  and  O_11
REMARK    6  A    between atoms: O_11  and  C_12
REMARK    7  A    between atoms: C_13  and  O_22
REMARK    8  A    between atoms: C_14  and  O_21
REMARK    9  A    between atoms: C_15  and  O_20
REMARK   10  A    between atoms: C_16  and  C_18
REMARK   11  A    between atoms: C_18  and  O_19
REMARK   12  A    between atoms: O_25  and  C_26
REMARK   13  A    between atoms: C_26  and  C_28
REMARK   14  A    between atoms: C_29  and  C_30
REMARK                            x       y       z     vdW  Elec       q    Type
REMARK                         _______ _______ _______ _____ _____    ______ ____
ROOT
ATOM      1  C   UNL     1      -0.029  -0.762  -1.396  1.00  0.00    +0.000 C 
ATOM      2  C   UNL     1       0.746  -0.734  -0.078  1.00  0.00    +0.000 C 
ATOM      3  C   UNL     1       0.766  -2.151   0.541  1.00  0.00    +0.000 C 
ATOM      4  C   UNL     1       1.018  -1.954   2.042  1.00  0.00    +0.000 C 
ATOM      5  C   UNL     1       0.937  -0.427   2.300  1.00  0.00    +0.000 C 
ATOM      6  C   UNL     1       0.204   0.149   1.075  1.00  0.00    +0.000 C 
ATOM      7  C   UNL     1      -1.318   0.079   1.314  1.00  0.00    +0.000 C 
ATOM      8  O   UNL     1      -1.684   0.775   2.517  1.00  0.00    +0.000 OA
ATOM      9  C   UNL     1      -0.924   0.501   3.616  1.00  0.00    +0.000 C 
ATOM     10  C   UNL     1       0.275  -0.085   3.589  1.00  0.00    +0.000 C 
ENDROOT
BRANCH   5  11
ATOM     11  O   UNL     1       2.268   0.100   2.397  1.00  0.00    +0.000 OA
ATOM     12  H   UNL     1       2.766  -0.259   1.637  1.00  0.00    +0.000 HD
ENDBRANCH   5  11
BRANCH   4  13
ATOM     13  O   UNL     1       2.302  -2.477   2.387  1.00  0.00    +0.000 OA
ATOM     14  H   UNL     1       2.618  -1.951   3.148  1.00  0.00    +0.000 HD
ENDBRANCH   4  13
BRANCH   7  15
ATOM     15  O   UNL     1      -1.972   0.708   0.216  1.00  0.00    +0.000 OA
BRANCH  15  16
ATOM     16  C   UNL     1      -3.282   0.228  -0.099  1.00  0.00    +0.000 C 
ATOM     17  C   UNL     1      -4.297   0.317   1.065  1.00  0.00    +0.000 C 
ATOM     18  C   UNL     1      -5.722   0.082   0.565  1.00  0.00    +0.000 C 
ATOM     19  C   UNL     1      -6.060   0.942  -0.648  1.00  0.00    +0.000 C 
ATOM     20  C   UNL     1      -4.991   0.713  -1.726  1.00  0.00    +0.000 C 
ATOM     21  O   UNL     1      -3.696   1.020  -1.220  1.00  0.00    +0.000 OA
BRANCH  19  22
ATOM     22  O   UNL     1      -7.375   0.572  -1.080  1.00  0.00    +0.000 OA
ATOM     23  H   UNL     1      -7.459   0.879  -2.011  1.00  0.00    +0.000 HD
ENDBRANCH  19  22
BRANCH  18  24
ATOM     24  O   UNL     1      -6.649   0.347   1.633  1.00  0.00    +0.000 OA
ATOM     25  H   UNL     1      -7.528   0.355   1.201  1.00  0.00    +0.000 HD
ENDBRANCH  18  24
BRANCH  17  26
ATOM     26  O   UNL     1      -4.045  -0.693   2.062  1.00  0.00    +0.000 OA
ATOM     27  H   UNL     1      -4.766  -0.578   2.714  1.00  0.00    +0.000 HD
ENDBRANCH  17  26
BRANCH  20  28
ATOM     28  C   UNL     1      -5.233   1.604  -2.952  1.00  0.00    +0.000 C 
BRANCH  28  29
ATOM     29  O   UNL     1      -6.536   1.393  -3.491  1.00  0.00    +0.000 OA
ATOM     30  H   UNL     1      -6.579   1.913  -4.316  1.00  0.00    +0.000 HD
ENDBRANCH  28  29
ENDBRANCH  20  28
ENDBRANCH  15  16
ENDBRANCH   7  15
BRANCH   2  31
ATOM     31  O   UNL     1       2.152  -0.431  -0.343  1.00  0.00    +0.000 OA
BRANCH  31  32
ATOM     32  C   UNL     1       2.501   0.740  -0.928  1.00  0.00    +0.000 C 
ATOM     33  O   UNL     1       1.749   1.636  -1.272  1.00  0.00    +0.000 OA
BRANCH  32  34
ATOM     34  C   UNL     1       3.966   0.837  -1.100  1.00  0.00    +0.000 C 
ATOM     35  C   UNL     1       4.830  -0.150  -0.818  1.00  0.00    +0.000 C 
BRANCH  35  36
ATOM     36  C   UNL     1       6.286  -0.034  -0.985  1.00  0.00    +0.000 A 
ATOM     37  C   UNL     1       7.123  -0.688  -0.071  1.00  0.00    +0.000 A 
ATOM     38  C   UNL     1       8.512  -0.626  -0.206  1.00  0.00    +0.000 A 
ATOM     39  C   UNL     1       9.079   0.082  -1.264  1.00  0.00    +0.000 A 
ATOM     40  C   UNL     1       8.258   0.722  -2.189  1.00  0.00    +0.000 A 
ATOM     41  C   UNL     1       6.868   0.661  -2.053  1.00  0.00    +0.000 A 
ENDBRANCH  35  36
ENDBRANCH  32  34
ENDBRANCH  31  32
ENDBRANCH   2  31
TORSDOF 13
