REMARK  Name = SANCDB_00915_minRM1.pdb
AUTHORGENERATED BY OPEN BABEL 2.3.2
REMARK  4 active torsions:
REMARK  status: ('A' for Active; 'I' for Inactive)
REMARK    1  A    between atoms: C_1  and  C_2
REMARK    2  A    between atoms: C_9  and  C_14
REMARK    3  A    between atoms: C_9  and  C_15
REMARK    4  A    between atoms: C_12  and  C_13
REMARK                            x       y       z     vdW  Elec       q    Type
REMARK                         _______ _______ _______ _____ _____    ______ ____
ROOT
ATOM      1  C   UNL     1       4.168   0.917  -0.515  1.00  0.00    +0.000 C 
ATOM      2  C   UNL     1       2.901   0.136  -0.315  1.00  0.00    +0.000 C 
ATOM      3  C   UNL     1       2.819  -1.175  -0.604  1.00  0.00    +0.000 C 
ATOM      4  C   UNL     1       1.560  -1.985  -0.453  1.00  0.00    +0.000 C 
ATOM      5  C   UNL     1       0.296  -1.107  -0.306  1.00  0.00    +0.000 C 
ATOM      6  C   UNL     1       0.565   0.019   0.717  1.00  0.00    +0.000 C 
ATOM      7  C   UNL     1       1.724   0.914   0.230  1.00  0.00    +0.000 C 
ATOM      8  C   UNL     1      -0.667   0.840   1.173  1.00  0.00    +0.000 C 
ATOM      9  C   UNL     1      -1.779   1.258   0.160  1.00  0.00    +0.000 C 
ATOM     10  C   UNL     1      -2.298   0.123  -0.768  1.00  0.00    +0.000 C 
ATOM     11  C   UNL     1      -2.182  -1.266  -0.207  1.00  0.00    +0.000 C 
ATOM     12  C   UNL     1      -0.992  -1.862   0.013  1.00  0.00    +0.000 C 
ATOM     13  C   UNL     1      -0.916  -3.234   0.618  1.00  0.00    +0.000 C 
ATOM     14  C   UNL     1      -1.304   2.428  -0.722  1.00  0.00    +0.000 C 
ATOM     15  C   UNL     1      -2.971   1.777   1.004  1.00  0.00    +0.000 C 
ENDROOT
TORSDOF 0
