REMARK  Name = 
REMARK  3 active torsions:
REMARK  status: ('A' for Active; 'I' for Inactive)
REMARK    1  A    between atoms: C_12  and  C_13
REMARK    2  A    between atoms: C_17  and  C_18
REMARK    3  A    between atoms: C_17  and  C_19
REMARK                            x       y       z     vdW  Elec       q    Type
REMARK                         _______ _______ _______ _____ _____    ______ ____
ROOT
ATOM      1  C   UNL     1      -0.351  -0.575  -0.346  1.00  0.00    +0.000 C 
ATOM      2  C   UNL     1       0.312  -1.887   0.157  1.00  0.00    +0.000 C 
ATOM      3  C   UNL     1       1.812  -1.900   0.016  1.00  0.00    +0.000 C 
ATOM      4  C   UNL     1       2.506  -0.816  -0.360  1.00  0.00    +0.000 C 
ATOM      5  C   UNL     1       3.976  -0.651  -0.379  1.00  0.00    +0.000 C 
ATOM      6  O   UNL     1       4.186   0.733  -0.098  1.00  0.00    +0.000 OA
ATOM      7  C   UNL     1       3.018   1.430  -0.246  1.00  0.00    +0.000 C 
ATOM      8  O   UNL     1       2.945   2.642  -0.113  1.00  0.00    +0.000 OA
ATOM      9  C   UNL     1       1.881   0.512  -0.649  1.00  0.00    +0.000 C 
ATOM     10  C   UNL     1       0.499   0.695   0.056  1.00  0.00    +0.000 C 
ATOM     11  C   UNL     1       0.696   0.845   1.585  1.00  0.00    +0.000 C 
ATOM     12  C   UNL     1      -0.184   1.971  -0.494  1.00  0.00    +0.000 C 
ATOM     13  C   UNL     1      -1.665   2.069  -0.142  1.00  0.00    +0.000 C 
ATOM     14  C   UNL     1      -2.437   0.854  -0.642  1.00  0.00    +0.000 C 
ATOM     15  C   UNL     1      -1.901  -0.495  -0.103  1.00  0.00    +0.000 C 
ATOM     16  C   UNL     1      -2.605  -1.620  -0.907  1.00  0.00    +0.000 C 
ATOM     17  C   UNL     1      -2.336  -0.680   1.363  1.00  0.00    +0.000 C 
ENDROOT
TORSDOF 0
