REMARK  Name = /srv/my_project/app/compsite/backup/Dave/CORINA_stuff/newPDBs/SANC00124.pdb
AUTHORGENERATED BY OPEN BABEL 2.3.2
REMARK  1 active torsions:
REMARK  status: ('A' for Active; 'I' for Inactive)
REMARK    1  A    between atoms: C_11  and  O_12
REMARK                            x       y       z     vdW  Elec       q    Type
REMARK                         _______ _______ _______ _____ _____    ______ ____
ROOT
ATOM      1  O   UNL     1       3.418   2.124   1.399  1.00  0.00    +0.000 OA
ATOM      2  C   UNL     1       2.596   1.471   0.765  1.00  0.00    +0.000 C 
ATOM      3  C   UNL     1       1.122   1.970   0.485  1.00  0.00    +0.000 C 
ATOM      4  N   UNL     1       0.564   2.646   1.657  1.00  0.00    +0.000 NA
ATOM      5  C   UNL     1      -0.653   3.395   1.322  1.00  0.00    +0.000 C 
ATOM      6  C   UNL     1      -1.536   2.709   0.254  1.00  0.00    +0.000 C 
ATOM      7  C   UNL     1      -1.331   1.183   0.201  1.00  0.00    +0.000 C 
ATOM      8  C   UNL     1      -1.810   0.512   1.484  1.00  0.00    +0.000 C 
ATOM      9  C   UNL     1      -2.281  -0.744   1.524  1.00  0.00    +0.000 C 
ATOM     10 BR   UNL     1      -2.798  -1.547   3.130  1.00  0.00    +0.000 Br
ATOM     11  C   UNL     1      -2.386  -1.616   0.303  1.00  0.00    +0.000 C 
ATOM     12  C   UNL     1      -1.784  -0.962  -0.979  1.00  0.00    +0.000 C 
ATOM     13  C   UNL     1      -2.063   0.552  -0.998  1.00  0.00    +0.000 C 
ATOM     14  N   UNL     1      -0.283  -1.192  -1.194  1.00  0.00    +0.000 NA
ATOM     15  C   UNL     1       0.581  -0.273  -0.492  1.00  0.00    +0.000 C 
ATOM     16  C   UNL     1       0.139   0.882   0.030  1.00  0.00    +0.000 C 
ATOM     17  C   UNL     1       1.958  -0.579  -0.470  1.00  0.00    +0.000 A 
ATOM     18  C   UNL     1       2.534  -1.765  -0.932  1.00  0.00    +0.000 A 
ATOM     19  C   UNL     1       3.878  -1.665  -0.638  1.00  0.00    +0.000 A 
ATOM     20  N   UNL     1       4.094  -0.461   0.020  1.00  0.00    +0.000 N 
ATOM     21  H   UNL     1       4.983  -0.133   0.384  1.00  0.00    +0.000 HD
ATOM     22  C   UNL     1       2.899   0.208   0.131  1.00  0.00    +0.000 A 
ATOM     23  C   UNL     1       1.682  -2.821  -1.543  1.00  0.00    +0.000 C 
ATOM     24  C   UNL     1       0.215  -2.652  -1.043  1.00  0.00    +0.000 C 
ATOM     25  H   UNL     1       1.266   3.276   2.059  1.00  0.00    +0.000 HD
ATOM     26  H   UNL     1      -0.139  -0.986  -2.194  1.00  0.00    +0.000 HD
ENDROOT
BRANCH  11  27
ATOM     27  O   UNL     1      -3.769  -1.874   0.031  1.00  0.00    +0.000 OA
ATOM     28  H   UNL     1      -4.205  -2.097   0.878  1.00  0.00    +0.000 HD
ENDBRANCH  11  27
TORSDOF 1
