REMARK  Name = /srv/my_project/app/compsite/backup/Dave/CORINA_stuff/newPDBs/SANC00291.pdb
AUTHORGENERATED BY OPEN BABEL 2.3.2
REMARK  7 active torsions:
REMARK  status: ('A' for Active; 'I' for Inactive)
REMARK    1  A    between atoms: C_1  and  C_2
REMARK    2  A    between atoms: C_9  and  C_27
REMARK    3  A    between atoms: C_13  and  C_23
REMARK    4  A    between atoms: C_14  and  C_15
REMARK    5  A    between atoms: C_14  and  O_22
REMARK    6  A    between atoms: C_15  and  C_16
REMARK    7  A    between atoms: C_16  and  C_17
REMARK                            x       y       z     vdW  Elec       q    Type
REMARK                         _______ _______ _______ _____ _____    ______ ____
ROOT
ATOM      1  C   UNL     1       1.023  -2.543  -2.049  1.00  0.00    +0.000 C 
ATOM      2  C   UNL     1       0.561  -1.864  -0.751  1.00  0.00    +0.000 C 
ATOM      3  C   UNL     1      -0.759  -2.514  -0.269  1.00  0.00    +0.000 C 
ATOM      4  C   UNL     1      -2.056  -1.766  -0.578  1.00  0.00    +0.000 C 
ATOM      5  C   UNL     1      -1.972  -0.252  -0.555  1.00  0.00    +0.000 C 
ATOM      6  C   UNL     1      -3.277   0.212   0.093  1.00  0.00    +0.000 C 
ATOM      7  C   UNL     1      -3.092   1.442   0.993  1.00  0.00    +0.000 C 
ATOM      8  C   UNL     1      -2.078   2.443   0.435  1.00  0.00    +0.000 C 
ATOM      9  C   UNL     1      -0.747   1.843  -0.049  1.00  0.00    +0.000 C 
ATOM     10  C   UNL     1      -0.645   0.296   0.064  1.00  0.00    +0.000 C 
ATOM     11  C   UNL     1       0.523  -0.294  -0.835  1.00  0.00    +0.000 C 
ATOM     12  C   UNL     1      -0.461  -0.081   1.562  1.00  0.00    +0.000 C 
ATOM     13  C   UNL     1      -3.700  -1.017   0.864  1.00  0.00    +0.000 C 
ATOM     14  O   UNL     1      -4.545  -1.050   1.744  1.00  0.00    +0.000 OA
ATOM     15  O   UNL     1      -3.027  -2.118   0.419  1.00  0.00    +0.000 OA
ATOM     16  C   UNL     1      -4.359   0.477  -0.967  1.00  0.00    +0.000 C 
ENDROOT
BRANCH  11  17
ATOM     17  O   UNL     1       0.175   0.045  -2.202  1.00  0.00    +0.000 OA
ATOM     18  H   UNL     1       0.957  -0.070  -2.771  1.00  0.00    +0.000 HD
ENDBRANCH  11  17
BRANCH  11  19
ATOM     19  C   UNL     1       1.928   0.348  -0.635  1.00  0.00    +0.000 C 
BRANCH  19  20
ATOM     20  C   UNL     1       2.578   0.271   0.747  1.00  0.00    +0.000 C 
BRANCH  20  21
ATOM     21  C   UNL     1       3.991   0.760   0.722  1.00  0.00    +0.000 A 
ATOM     22  C   UNL     1       4.426   2.064   0.850  1.00  0.00    +0.000 A 
ATOM     23  O   UNL     1       5.779   2.130   0.777  1.00  0.00    +0.000 OA
ATOM     24  C   UNL     1       6.228   0.862   0.604  1.00  0.00    +0.000 A 
ATOM     25  C   UNL     1       5.172  -0.018   0.564  1.00  0.00    +0.000 A 
ENDBRANCH  20  21
ENDBRANCH  19  20
ENDBRANCH  11  19
TORSDOF 4
