REMARK  Name = /srv/my_project/app/compsite/backup/Dave/CORINA_stuff/newPDBs/SANC00152.pdb
AUTHORGENERATED BY OPEN BABEL 2.3.2
REMARK  12 active torsions:
REMARK  status: ('A' for Active; 'I' for Inactive)
REMARK    1  A    between atoms: C_6  and  C_7
REMARK    2  A    between atoms: C_6  and  O_8
REMARK    3  A    between atoms: O_8  and  C_9
REMARK    4  A    between atoms: C_9  and  C_10
REMARK    5  A    between atoms: C_15  and  C_16
REMARK    6  A    between atoms: C_16  and  C_18
REMARK    7  A    between atoms: C_18  and  C_19
REMARK    8  A    between atoms: C_20  and  C_21
REMARK    9  A    between atoms: C_20  and  C_22
REMARK   10  A    between atoms: C_25  and  O_26
REMARK   11  A    between atoms: O_26  and  C_27
REMARK   12  A    between atoms: C_27  and  C_28
REMARK                            x       y       z     vdW  Elec       q    Type
REMARK                         _______ _______ _______ _____ _____    ______ ____
ROOT
ATOM      1  C   UNL     1      -2.412   2.448  -1.854  1.00  0.00    +0.000 C 
ATOM      2  C   UNL     1      -2.043   1.845  -0.704  1.00  0.00    +0.000 C 
ATOM      3  C   UNL     1      -3.135   1.235   0.149  1.00  0.00    +0.000 C 
ATOM      4  C   UNL     1      -2.756   0.152   1.107  1.00  0.00    +0.000 C 
ATOM      5  C   UNL     1      -2.430  -1.132   0.862  1.00  0.00    +0.000 C 
ATOM      6  C   UNL     1      -2.207  -1.881  -0.447  1.00  0.00    +0.000 C 
ATOM      7  C   UNL     1      -1.394  -3.150  -0.117  1.00  0.00    +0.000 C 
ATOM      8  C   UNL     1      -1.514  -1.075  -1.579  1.00  0.00    +0.000 C 
ATOM      9  C   UNL     1      -0.097  -0.519  -1.322  1.00  0.00    +0.000 C 
ATOM     10  C   UNL     1       0.115   0.425  -0.112  1.00  0.00    +0.000 C 
ATOM     11  C   UNL     1       1.577   0.656   0.233  1.00  0.00    +0.000 C 
ATOM     12  C   UNL     1       2.013   1.831   0.709  1.00  0.00    +0.000 C 
ATOM     13  O   UNL     1       1.237   2.933   0.948  1.00  0.00    +0.000 OA
ATOM     14  C   UNL     1      -0.193   2.727   0.884  1.00  0.00    +0.000 C 
ATOM     15  C   UNL     1      -0.560   1.821  -0.321  1.00  0.00    +0.000 C 
ENDROOT
BRANCH  11  16
ATOM     16  C   UNL     1       2.536  -0.489   0.206  1.00  0.00    +0.000 C 
ATOM     17  O   UNL     1       2.161  -1.588   0.618  1.00  0.00    +0.000 OA
BRANCH  16  18
ATOM     18  C   UNL     1       3.938  -0.269  -0.353  1.00  0.00    +0.000 C 
BRANCH  18  19
ATOM     19  C   UNL     1       4.976  -0.388   0.726  1.00  0.00    +0.000 C 
ATOM     20  C   UNL     1       5.722  -1.469   1.029  1.00  0.00    +0.000 C 
ATOM     21  C   UNL     1       5.608  -2.810   0.356  1.00  0.00    +0.000 C 
ATOM     22  C   UNL     1       6.747  -1.414   2.131  1.00  0.00    +0.000 C 
ENDBRANCH  18  19
ENDBRANCH  16  18
ENDBRANCH  11  16
BRANCH   6  23
ATOM     23  O   UNL     1      -3.564  -2.241  -0.836  1.00  0.00    +0.000 OA
BRANCH  23  24
ATOM     24  C   UNL     1      -3.809  -3.047  -1.898  1.00  0.00    +0.000 C 
ATOM     25  C   UNL     1      -5.288  -3.234  -2.052  1.00  0.00    +0.000 C 
ATOM     26  O   UNL     1      -2.979  -3.557  -2.635  1.00  0.00    +0.000 OA
ENDBRANCH  23  24
ENDBRANCH   6  23
BRANCH  14  27
ATOM     27  O   UNL     1      -0.784   4.027   0.711  1.00  0.00    +0.000 OA
BRANCH  27  28
ATOM     28  C   UNL     1      -1.791   4.342   1.560  1.00  0.00    +0.000 C 
ATOM     29  C   UNL     1      -2.301   5.717   1.255  1.00  0.00    +0.000 C 
ATOM     30  O   UNL     1      -2.240   3.625   2.443  1.00  0.00    +0.000 OA
ENDBRANCH  27  28
ENDBRANCH  14  27
TORSDOF 7
