REMARK  Name = /srv/my_project/app/compsite/backup/Dave/CORINA_stuff/newPDBs/SANC00286.pdb
AUTHORGENERATED BY OPEN BABEL 2.3.2
REMARK  6 active torsions:
REMARK  status: ('A' for Active; 'I' for Inactive)
REMARK    1  A    between atoms: O_1  and  C_2
REMARK    2  A    between atoms: C_4  and  O_5
REMARK    3  A    between atoms: C_8  and  O_10
REMARK    4  A    between atoms: C_11  and  C_13
REMARK    5  A    between atoms: C_16  and  O_17
REMARK    6  A    between atoms: C_18  and  O_19
REMARK                            x       y       z     vdW  Elec       q    Type
REMARK                         _______ _______ _______ _____ _____    ______ ____
ROOT
ATOM      1  C   UNL     1       3.432   1.549  -0.771  1.00  0.00    +0.000 A 
ATOM      2  C   UNL     1       3.579   1.442   0.605  1.00  0.00    +0.000 A 
ATOM      3  C   UNL     1       2.755   0.569   1.314  1.00  0.00    +0.000 A 
ATOM      4  C   UNL     1       1.791  -0.217   0.664  1.00  0.00    +0.000 A 
ATOM      5  C   UNL     1       0.917  -1.185   1.411  1.00  0.00    +0.000 C 
ATOM      6  C   UNL     1       0.261  -2.190   0.470  1.00  0.00    +0.000 C 
ATOM      7  C   UNL     1      -0.291  -1.495  -0.787  1.00  0.00    +0.000 C 
ATOM      8  O   UNL     1       0.717  -0.733  -1.476  1.00  0.00    +0.000 OA
ATOM      9  C   UNL     1       1.643  -0.066  -0.721  1.00  0.00    +0.000 A 
ATOM     10  C   UNL     1       2.469   0.804  -1.437  1.00  0.00    +0.000 A 
ENDROOT
BRANCH   7  11
ATOM     11  C   UNL     1      -1.580  -0.716  -0.540  1.00  0.00    +0.000 A 
ATOM     12  C   UNL     1      -2.756  -1.423  -0.212  1.00  0.00    +0.000 A 
ATOM     13  C   UNL     1      -3.960  -0.755   0.024  1.00  0.00    +0.000 A 
ATOM     14  C   UNL     1      -3.998   0.626  -0.074  1.00  0.00    +0.000 A 
ATOM     15  C   UNL     1      -2.844   1.342  -0.372  1.00  0.00    +0.000 A 
ATOM     16  C   UNL     1      -1.645   0.685  -0.624  1.00  0.00    +0.000 A 
BRANCH  14  17
ATOM     17  O   UNL     1      -5.190   1.269   0.091  1.00  0.00    +0.000 OA
ATOM     18  H   UNL     1      -5.202   1.982  -0.575  1.00  0.00    +0.000 HD
ENDBRANCH  14  17
BRANCH  15  19
ATOM     19  O   UNL     1      -2.864   2.707  -0.393  1.00  0.00    +0.000 OA
ATOM     20  H   UNL     1      -3.482   2.979   0.309  1.00  0.00    +0.000 HD
ENDBRANCH  15  19
ENDBRANCH   7  11
BRANCH   1  21
ATOM     21  O   UNL     1       4.214   2.387  -1.508  1.00  0.00    +0.000 OA
ATOM     22  H   UNL     1       4.831   2.841  -0.910  1.00  0.00    +0.000 HD
ENDBRANCH   1  21
BRANCH   3  23
ATOM     23  O   UNL     1       2.957   0.537   2.666  1.00  0.00    +0.000 OA
ATOM     24  H   UNL     1       2.268   0.003   3.092  1.00  0.00    +0.000 HD
ENDBRANCH   3  23
BRANCH   6  25
ATOM     25  O   UNL     1       1.219  -3.200   0.107  1.00  0.00    +0.000 OA
ATOM     26  H   UNL     1       1.878  -2.777  -0.475  1.00  0.00    +0.000 HD
ENDBRANCH   6  25
TORSDOF 6
