REMARK  Name = SANCDB_00896_minRM1.pdb
AUTHORGENERATED BY OPEN BABEL 2.3.2
REMARK  16 active torsions:
REMARK  status: ('A' for Active; 'I' for Inactive)
REMARK    1  A    between atoms: C_1  and  C_2
REMARK    2  A    between atoms: C_2  and  C_3
REMARK    3  A    between atoms: C_3  and  C_4
REMARK    4  A    between atoms: C_4  and  C_5
REMARK    5  A    between atoms: C_5  and  C_6
REMARK    6  A    between atoms: C_6  and  C_7
REMARK    7  A    between atoms: C_7  and  C_8
REMARK    8  A    between atoms: C_8  and  C_9
REMARK    9  A    between atoms: C_9  and  C_10
REMARK   10  A    between atoms: C_10  and  C_11
REMARK   11  A    between atoms: C_11  and  C_12
REMARK   12  A    between atoms: C_12  and  C_13
REMARK   13  A    between atoms: C_13  and  C_14
REMARK   14  A    between atoms: C_14  and  C_15
REMARK   15  A    between atoms: C_15  and  C_16
REMARK   16  A    between atoms: C_16  and  O_18
REMARK                            x       y       z     vdW  Elec       q    Type
REMARK                         _______ _______ _______ _____ _____    ______ ____
ROOT
ATOM      1  C   UNL     1      -1.137   0.511   0.331  1.00  0.00    +0.000 C 
ENDROOT
BRANCH   1   2
ATOM      2  C   UNL     1      -1.024  -1.003   0.515  1.00  0.00    +0.000 C 
BRANCH   2   3
ATOM      3  C   UNL     1      -0.044  -1.733  -0.410  1.00  0.00    +0.000 C 
BRANCH   3   4
ATOM      4  C   UNL     1       1.436  -1.420  -0.157  1.00  0.00    +0.000 C 
BRANCH   4   5
ATOM      5  C   UNL     1       1.986  -0.300  -1.046  1.00  0.00    +0.000 C 
BRANCH   5   6
ATOM      6  C   UNL     1       3.502  -0.119  -0.922  1.00  0.00    +0.000 C 
BRANCH   6   7
ATOM      7  C   UNL     1       3.942   0.379   0.457  1.00  0.00    +0.000 C 
BRANCH   7   8
ATOM      8  C   UNL     1       5.447   0.654   0.491  1.00  0.00    +0.000 C 
BRANCH   8  10
ATOM      9  C   UNL     1       7.385   1.424   1.907  1.00  0.00    +0.000 C 
ATOM     10  C   UNL     1       5.891   1.149   1.868  1.00  0.00    +0.000 C 
ENDBRANCH   8  10
ENDBRANCH   7   8
ENDBRANCH   6   7
ENDBRANCH   5   6
ENDBRANCH   4   5
ENDBRANCH   3   4
ENDBRANCH   2   3
ENDBRANCH   1   2
BRANCH   1  11
ATOM     11  C   UNL     1      -1.553   0.980  -1.067  1.00  0.00    +0.000 C 
BRANCH  11  12
ATOM     12  C   UNL     1      -2.876   0.414  -1.592  1.00  0.00    +0.000 C 
BRANCH  12  13
ATOM     13  C   UNL     1      -4.081   0.772  -0.719  1.00  0.00    +0.000 C 
BRANCH  13  14
ATOM     14  C   UNL     1      -5.386   0.273  -1.349  1.00  0.00    +0.000 C 
BRANCH  14  15
ATOM     15  C   UNL     1      -6.613   0.625  -0.508  1.00  0.00    +0.000 C 
BRANCH  15  16
ATOM     16  C   UNL     1      -6.721  -0.202   0.746  1.00  0.00    +0.000 C 
ATOM     17  O   UNL     1      -6.104  -1.216   1.025  1.00  0.00    +0.000 OA
BRANCH  16  18
ATOM     18  O   UNL     1      -7.647   0.289   1.593  1.00  0.00    +0.000 OA
ATOM     19  H   UNL     1      -7.631  -0.335   2.348  1.00  0.00    +0.000 HD
ENDBRANCH  16  18
ENDBRANCH  15  16
ENDBRANCH  14  15
ENDBRANCH  13  14
ENDBRANCH  12  13
ENDBRANCH  11  12
ENDBRANCH   1  11
TORSDOF 15
