REMARK  Name = SANCDB_01085_minRM1.pdb
AUTHORGENERATED BY OPEN BABEL 2.3.2
REMARK  17 active torsions:
REMARK  status: ('A' for Active; 'I' for Inactive)
REMARK    1  A    between atoms: C_1  and  C_2
REMARK    2  A    between atoms: C_3  and  O_43
REMARK    3  A    between atoms: C_4  and  O_42
REMARK    4  A    between atoms: C_5  and  O_41
REMARK    5  A    between atoms: C_6  and  O_8
REMARK    6  A    between atoms: O_8  and  C_9
REMARK    7  A    between atoms: C_9  and  C_10
REMARK    8  A    between atoms: C_11  and  O_40
REMARK    9  A    between atoms: C_12  and  O_39
REMARK   10  A    between atoms: C_13  and  O_38
REMARK   11  A    between atoms: C_14  and  O_16
REMARK   12  A    between atoms: O_16  and  C_17
REMARK   13  A    between atoms: C_18  and  C_30
REMARK   14  A    between atoms: C_22  and  O_29
REMARK   15  A    between atoms: C_24  and  O_28
REMARK   16  A    between atoms: C_32  and  O_37
REMARK   17  A    between atoms: C_33  and  O_36
REMARK                            x       y       z     vdW  Elec       q    Type
REMARK                         _______ _______ _______ _____ _____    ______ ____
ROOT
ATOM      1  C   UNL     1       0.780   1.593   0.109  1.00  0.00    +0.000 C 
ATOM      2  C   UNL     1       1.628   0.909   1.192  1.00  0.00    +0.000 C 
ATOM      3  C   UNL     1       1.527   1.705   2.506  1.00  0.00    +0.000 C 
ATOM      4  C   UNL     1       0.160   2.383   2.696  1.00  0.00    +0.000 C 
ATOM      5  C   UNL     1      -0.923   1.680   1.853  1.00  0.00    +0.000 C 
ATOM      6  O   UNL     1      -0.618   1.598   0.455  1.00  0.00    +0.000 OA
ENDROOT
BRANCH   2   7
ATOM      7  O   UNL     1       3.006   0.775   0.839  1.00  0.00    +0.000 OA
ATOM      8  H   UNL     1       3.473   0.497   1.649  1.00  0.00    +0.000 HD
ENDBRANCH   2   7
BRANCH   3   9
ATOM      9  O   UNL     1       1.830   0.813   3.594  1.00  0.00    +0.000 OA
ATOM     10  H   UNL     1       1.102   0.167   3.664  1.00  0.00    +0.000 HD
ENDBRANCH   3   9
BRANCH   4  11
ATOM     11  O   UNL     1       0.267   3.765   2.320  1.00  0.00    +0.000 OA
ATOM     12  H   UNL     1      -0.554   4.211   2.595  1.00  0.00    +0.000 HD
ENDBRANCH   4  11
BRANCH   5  13
ATOM     13  O   UNL     1      -1.114   0.358   2.386  1.00  0.00    +0.000 OA
BRANCH  13  14
ATOM     14  C   UNL     1      -2.431  -0.053   2.278  1.00  0.00    +0.000 A 
ATOM     15  C   UNL     1      -2.822  -1.065   1.481  1.00  0.00    +0.000 A 
ATOM     16  O   UNL     1      -4.127  -1.508   1.345  1.00  0.00    +0.000 OA
ATOM     17  C   UNL     1      -5.100  -0.923   2.113  1.00  0.00    +0.000 A 
ATOM     18  C   UNL     1      -6.399  -1.409   1.967  1.00  0.00    +0.000 A 
ATOM     19  C   UNL     1      -7.428  -0.855   2.722  1.00  0.00    +0.000 A 
ATOM     20  C   UNL     1      -7.182   0.178   3.622  1.00  0.00    +0.000 A 
ATOM     21  C   UNL     1      -5.883   0.660   3.764  1.00  0.00    +0.000 A 
ATOM     22  C   UNL     1      -4.840   0.111   3.009  1.00  0.00    +0.000 A 
ATOM     23  C   UNL     1      -3.461   0.599   3.129  1.00  0.00    +0.000 A 
ATOM     24  O   UNL     1      -3.186   1.517   3.899  1.00  0.00    +0.000 OA
BRANCH  15  25
ATOM     25  C   UNL     1      -1.875  -1.791   0.621  1.00  0.00    +0.000 A 
ATOM     26  C   UNL     1      -1.987  -1.692  -0.775  1.00  0.00    +0.000 A 
ATOM     27  C   UNL     1      -1.088  -2.378  -1.583  1.00  0.00    +0.000 A 
ATOM     28  C   UNL     1      -0.088  -3.164  -1.016  1.00  0.00    +0.000 A 
ATOM     29  C   UNL     1       0.030  -3.280   0.360  1.00  0.00    +0.000 A 
ATOM     30  C   UNL     1      -0.865  -2.592   1.181  1.00  0.00    +0.000 A 
BRANCH  27  31
ATOM     31  O   UNL     1      -1.140  -2.305  -2.947  1.00  0.00    +0.000 OA
ATOM     32  H   UNL     1      -1.882  -1.730  -3.200  1.00  0.00    +0.000 HD
ENDBRANCH  27  31
BRANCH  28  33
ATOM     33  O   UNL     1       0.795  -3.829  -1.816  1.00  0.00    +0.000 OA
ATOM     34  H   UNL     1       0.580  -3.530  -2.723  1.00  0.00    +0.000 HD
ENDBRANCH  28  33
ENDBRANCH  15  25
BRANCH  19  35
ATOM     35  O   UNL     1      -8.683  -1.359   2.547  1.00  0.00    +0.000 OA
ATOM     36  H   UNL     1      -9.297  -0.892   3.138  1.00  0.00    +0.000 HD
ENDBRANCH  19  35
BRANCH  21  37
ATOM     37  O   UNL     1      -5.700   1.675   4.663  1.00  0.00    +0.000 OA
ATOM     38  H   UNL     1      -4.746   1.911   4.678  1.00  0.00    +0.000 HD
ENDBRANCH  21  37
ENDBRANCH  13  14
ENDBRANCH   5  13
BRANCH   1  39
ATOM     39  C   UNL     1       0.914   0.906  -1.260  1.00  0.00    +0.000 C 
BRANCH  39  40
ATOM     40  O   UNL     1       2.065   1.386  -1.956  1.00  0.00    +0.000 OA
BRANCH  40  46
ATOM     41  C   UNL     1       4.123  -2.311  -2.216  1.00  0.00    +0.000 C 
ATOM     42  C   UNL     1       3.900  -0.814  -2.405  1.00  0.00    +0.000 C 
ATOM     43  C   UNL     1       5.003  -0.175  -3.260  1.00  0.00    +0.000 C 
ATOM     44  C   UNL     1       4.684   1.311  -3.460  1.00  0.00    +0.000 C 
ATOM     45  C   UNL     1       3.284   1.496  -4.043  1.00  0.00    +0.000 C 
ATOM     46  C   UNL     1       2.246   0.722  -3.208  1.00  0.00    +0.000 C 
ATOM     47  O   UNL     1       2.620  -0.651  -3.027  1.00  0.00    +0.000 OA
BRANCH  43  48
ATOM     48  O   UNL     1       6.302  -0.266  -2.658  1.00  0.00    +0.000 OA
ATOM     49  H   UNL     1       6.554  -1.206  -2.656  1.00  0.00    +0.000 HD
ENDBRANCH  43  48
BRANCH  44  50
ATOM     50  O   UNL     1       5.651   1.880  -4.366  1.00  0.00    +0.000 OA
ATOM     51  H   UNL     1       6.516   1.621  -3.988  1.00  0.00    +0.000 HD
ENDBRANCH  44  50
BRANCH  45  52
ATOM     52  O   UNL     1       3.288   1.051  -5.413  1.00  0.00    +0.000 OA
ATOM     53  H   UNL     1       4.114   1.425  -5.785  1.00  0.00    +0.000 HD
ENDBRANCH  45  52
ENDBRANCH  40  46
ENDBRANCH  39  40
ENDBRANCH   1  39
TORSDOF 16
