REMARK  Name = SANCDB_01063_minRM1.pdb
AUTHORGENERATED BY OPEN BABEL 2.3.2
REMARK  8 active torsions:
REMARK  status: ('A' for Active; 'I' for Inactive)
REMARK    1  A    between atoms: C_1  and  C_2
REMARK    2  A    between atoms: C_2  and  C_11
REMARK    3  A    between atoms: C_3  and  C_4
REMARK    4  A    between atoms: C_4  and  C_5
REMARK    5  A    between atoms: C_5  and  C_6
REMARK    6  A    between atoms: C_6  and  C_10
REMARK    7  A    between atoms: C_7  and  C_8
REMARK    8  A    between atoms: C_8  and  O_9
REMARK                            x       y       z     vdW  Elec       q    Type
REMARK                         _______ _______ _______ _____ _____    ______ ____
ROOT
ATOM      1  C   UNL     1       0.244  -1.267  -0.410  1.00  0.00    +0.000 C 
ENDROOT
BRANCH   1   2
ATOM      2  C   UNL     1       1.468  -0.372  -0.517  1.00  0.00    +0.000 C 
ATOM      3  C   UNL     1       2.677  -0.835  -0.133  1.00  0.00    +0.000 C 
ATOM      4  C   UNL     1       1.235   0.989  -1.114  1.00  0.00    +0.000 C 
BRANCH   3   5
ATOM      5  C   UNL     1       3.983  -0.113  -0.144  1.00  0.00    +0.000 C 
BRANCH   5   6
ATOM      6  O   UNL     1       4.609  -0.348   1.109  1.00  0.00    +0.000 OA
ATOM      7  H   UNL     1       5.441   0.155   1.102  1.00  0.00    +0.000 HD
ENDBRANCH   5   6
ENDBRANCH   3   5
ENDBRANCH   1   2
BRANCH   1   8
ATOM      8  C   UNL     1      -0.570  -1.087   0.879  1.00  0.00    +0.000 C 
BRANCH   8  11
ATOM      9  C   UNL     1      -3.230   1.792   0.736  1.00  0.00    +0.000 C 
ATOM     10  C   UNL     1      -2.601   0.435   0.561  1.00  0.00    +0.000 C 
ATOM     11  C   UNL     1      -1.332   0.208   0.952  1.00  0.00    +0.000 C 
ATOM     12  C   UNL     1      -3.498  -0.588  -0.081  1.00  0.00    +0.000 C 
ENDBRANCH   8  11
ENDBRANCH   1   8
TORSDOF 5
