REMARK  Name = /srv/my_project/app/compsite/backup/Dave/CORINA_stuff/newPDBs/SANC00402.pdb
AUTHORGENERATED BY OPEN BABEL 2.3.2
REMARK  32 active torsions:
REMARK  status: ('A' for Active; 'I' for Inactive)
REMARK    1  A    between atoms: C_11  and  C_12
REMARK    2  A    between atoms: C_16  and  O_18
REMARK    3  A    between atoms: O_18  and  C_19
REMARK    4  A    between atoms: C_22  and  C_24
REMARK    5  A    between atoms: C_24  and  O_25
REMARK    6  A    between atoms: O_25  and  C_26
REMARK    7  A    between atoms: C_26  and  C_27
REMARK    8  A    between atoms: C_29  and  O_31
REMARK    9  A    between atoms: O_31  and  C_32
REMARK   10  A    between atoms: C_36  and  O_37
REMARK   11  A    between atoms: C_36  and  C_38
REMARK   12  A    between atoms: C_38  and  O_39
REMARK   13  A    between atoms: C_40  and  O_42
REMARK   14  A    between atoms: C_43  and  O_45
REMARK   15  A    between atoms: C_46  and  O_48
REMARK   16  A    between atoms: C_49  and  C_51
REMARK   17  A    between atoms: C_51  and  C_53
REMARK   18  A    between atoms: C_51  and  C_54
REMARK   19  A    between atoms: C_54  and  O_56
REMARK   20  A    between atoms: C_54  and  C_57
REMARK   21  A    between atoms: C_57  and  C_58
REMARK   22  A    between atoms: C_58  and  C_59
REMARK   23  A    between atoms: C_59  and  C_60
REMARK   24  A    between atoms: C_59  and  C_61
REMARK   25  A    between atoms: C_62  and  C_63
REMARK   26  A    between atoms: C_64  and  O_66
REMARK   27  A    between atoms: O_66  and  C_67
REMARK   28  A    between atoms: C_70  and  C_72
REMARK   29  A    between atoms: C_73  and  O_75
REMARK   30  A    between atoms: C_76  and  O_78
REMARK   31  A    between atoms: C_79  and  O_81
REMARK   32  A    between atoms: C_83  and  O_85
REMARK                            x       y       z     vdW  Elec       q    Type
REMARK                         _______ _______ _______ _____ _____    ______ ____
ROOT
ATOM      1  C   UNL     1       5.320   0.107  -0.508  1.00  0.00    +0.000 C 
ATOM      2  C   UNL     1       4.492   1.104  -1.327  1.00  0.00    +0.000 C 
ATOM      3  C   UNL     1       3.022   0.705  -1.355  1.00  0.00    +0.000 C 
ATOM      4  C   UNL     1       2.441   0.524   0.053  1.00  0.00    +0.000 C 
ATOM      5  C   UNL     1       3.296  -0.480   0.898  1.00  0.00    +0.000 C 
ATOM      6  C   UNL     1       2.621  -0.790   2.259  1.00  0.00    +0.000 C 
ATOM      7  C   UNL     1       1.134  -1.177   2.154  1.00  0.00    +0.000 C 
ATOM      8  C   UNL     1       0.316  -0.139   1.378  1.00  0.00    +0.000 C 
ATOM      9  C   UNL     1       0.285   1.189   2.173  1.00  0.00    +0.000 C 
ATOM     10  C   UNL     1       0.991   0.026  -0.012  1.00  0.00    +0.000 C 
ATOM     11  C   UNL     1      -0.027   0.844  -0.804  1.00  0.00    +0.000 C 
ATOM     12  C   UNL     1      -1.395   0.316  -0.318  1.00  0.00    +0.000 C 
ATOM     13  C   UNL     1      -1.087  -0.630   0.889  1.00  0.00    +0.000 C 
ATOM     14  C   UNL     1       4.821  -0.039   0.973  1.00  0.00    +0.000 C 
ATOM     15  C   UNL     1       4.955   1.296   1.755  1.00  0.00    +0.000 C 
ATOM     16  C   UNL     1       5.719  -1.136   1.665  1.00  0.00    +0.000 C 
ATOM     17  C   UNL     1       7.224  -0.852   1.517  1.00  0.00    +0.000 C 
ATOM     18  C   UNL     1       7.651  -0.632   0.074  1.00  0.00    +0.000 C 
ATOM     19  C   UNL     1       6.812   0.438  -0.610  1.00  0.00    +0.000 C 
ENDROOT
BRANCH  18  20
ATOM     20  O   UNL     1       9.016  -0.231   0.031  1.00  0.00    +0.000 OA
ATOM     21  H   UNL     1       9.546  -0.928   0.455  1.00  0.00    +0.000 HD
ENDBRANCH  18  20
BRANCH  13  22
ATOM     22  C   UNL     1      -2.324  -0.872   1.811  1.00  0.00    +0.000 C 
ATOM     23  C   UNL     1      -2.427   0.021   3.045  1.00  0.00    +0.000 C 
BRANCH  22  24
ATOM     24  C   UNL     1      -2.467  -2.377   2.176  1.00  0.00    +0.000 C 
BRANCH  24  25
ATOM     25  O   UNL     1      -1.385  -2.773   3.019  1.00  0.00    +0.000 OA
ATOM     26  H   UNL     1      -1.487  -3.721   3.205  1.00  0.00    +0.000 HD
ENDBRANCH  24  25
BRANCH  24  27
ATOM     27  C   UNL     1      -3.782  -2.765   2.876  1.00  0.00    +0.000 C 
BRANCH  27  28
ATOM     28  C   UNL     1      -5.075  -2.375   2.150  1.00  0.00    +0.000 C 
BRANCH  28  29
ATOM     29  C   UNL     1      -5.204  -2.877   0.699  1.00  0.00    +0.000 C 
ATOM     30  C   UNL     1      -5.183  -4.403   0.611  1.00  0.00    +0.000 C 
ATOM     31  C   UNL     1      -6.495  -2.337   0.077  1.00  0.00    +0.000 C 
ENDBRANCH  28  29
ENDBRANCH  27  28
ENDBRANCH  24  27
ENDBRANCH  22  24
ENDBRANCH  13  22
BRANCH  16  32
ATOM     32  O   UNL     1       5.407  -1.199   3.062  1.00  0.00    +0.000 OA
BRANCH  32  33
ATOM     33  C   UNL     1       5.747  -2.436   3.705  1.00  0.00    +0.000 C 
ATOM     34  O   UNL     1       5.085  -3.534   3.077  1.00  0.00    +0.000 OA
ATOM     35  C   UNL     1       4.705  -4.614   3.943  1.00  0.00    +0.000 C 
ATOM     36  C   UNL     1       4.605  -5.867   3.080  1.00  0.00    +0.000 C 
ATOM     37  C   UNL     1       5.688  -4.788   5.108  1.00  0.00    +0.000 C 
ATOM     38  C   UNL     1       5.681  -3.527   5.983  1.00  0.00    +0.000 C 
ATOM     39  C   UNL     1       5.346  -2.266   5.182  1.00  0.00    +0.000 C 
BRANCH  39  40
ATOM     40  O   UNL     1       5.989  -1.131   5.785  1.00  0.00    +0.000 OA
ATOM     41  H   UNL     1       5.831  -0.394   5.159  1.00  0.00    +0.000 HD
ENDBRANCH  39  40
BRANCH  38  42
ATOM     42  O   UNL     1       6.972  -3.405   6.606  1.00  0.00    +0.000 OA
ATOM     43  H   UNL     1       7.045  -2.452   6.835  1.00  0.00    +0.000 HD
ENDBRANCH  38  42
BRANCH  37  44
ATOM     44  O   UNL     1       5.371  -5.924   5.913  1.00  0.00    +0.000 OA
ATOM     45  H   UNL     1       6.026  -5.927   6.638  1.00  0.00    +0.000 HD
ENDBRANCH  37  44
ENDBRANCH  32  33
ENDBRANCH  16  32
BRANCH  12  46
ATOM     46  O   UNL     1      -2.228   1.401   0.073  1.00  0.00    +0.000 OA
BRANCH  46  47
ATOM     47  C   UNL     1      -2.956   1.991  -1.009  1.00  0.00    +0.000 C 
ATOM     48  O   UNL     1      -3.120   3.375  -0.717  1.00  0.00    +0.000 OA
ATOM     49  C   UNL     1      -3.693   4.130  -1.797  1.00  0.00    +0.000 C 
ATOM     50  C   UNL     1      -4.640   3.298  -2.706  1.00  0.00    +0.000 C 
ATOM     51  C   UNL     1      -5.356   2.208  -1.884  1.00  0.00    +0.000 C 
ATOM     52  C   UNL     1      -4.349   1.319  -1.121  1.00  0.00    +0.000 C 
BRANCH  52  53
ATOM     53  O   UNL     1      -4.257   0.023  -1.742  1.00  0.00    +0.000 OA
ATOM     54  H   UNL     1      -4.283   0.155  -2.713  1.00  0.00    +0.000 HD
ENDBRANCH  52  53
BRANCH  51  55
ATOM     55  O   UNL     1      -6.287   2.827  -0.989  1.00  0.00    +0.000 OA
ATOM     56  H   UNL     1      -6.717   2.118  -0.475  1.00  0.00    +0.000 HD
ENDBRANCH  51  55
BRANCH  50  57
ATOM     57  O   UNL     1      -3.806   2.735  -3.745  1.00  0.00    +0.000 OA
BRANCH  57  58
ATOM     58  C   UNL     1      -4.519   2.048  -4.768  1.00  0.00    +0.000 C 
ATOM     59  O   UNL     1      -4.517   0.644  -4.426  1.00  0.00    +0.000 OA
ATOM     60  C   UNL     1      -3.808  -0.062  -5.460  1.00  0.00    +0.000 C 
ATOM     61  C   UNL     1      -2.899   0.950  -6.138  1.00  0.00    +0.000 C 
ATOM     62  C   UNL     1      -3.781   2.194  -6.108  1.00  0.00    +0.000 C 
BRANCH  62  63
ATOM     63  O   UNL     1      -4.726   2.137  -7.194  1.00  0.00    +0.000 OA
ATOM     64  H   UNL     1      -4.267   1.660  -7.917  1.00  0.00    +0.000 HD
ENDBRANCH  62  63
BRANCH  61  65
ATOM     65  O   UNL     1      -2.610   0.590  -7.498  1.00  0.00    +0.000 OA
ATOM     66  H   UNL     1      -1.822   1.124  -7.738  1.00  0.00    +0.000 HD
ENDBRANCH  61  65
BRANCH  61  67
ATOM     67  C   UNL     1      -1.574   1.119  -5.381  1.00  0.00    +0.000 C 
BRANCH  67  68
ATOM     68  O   UNL     1      -0.760   2.047  -6.104  1.00  0.00    +0.000 OA
ATOM     69  H   UNL     1       0.056   2.174  -5.586  1.00  0.00    +0.000 HD
ENDBRANCH  67  68
ENDBRANCH  61  67
ENDBRANCH  57  58
ENDBRANCH  50  57
BRANCH  49  70
ATOM     70  C   UNL     1      -4.377   5.361  -1.188  1.00  0.00    +0.000 C 
BRANCH  70  71
ATOM     71  O   UNL     1      -4.827   6.232  -2.237  1.00  0.00    +0.000 OA
BRANCH  71  72
ATOM     72  C   UNL     1      -5.401   7.386  -1.797  1.00  0.00    +0.000 C 
ATOM     73  C   UNL     1      -5.845   8.212  -2.966  1.00  0.00    +0.000 C 
ATOM     74  O   UNL     1      -5.543   7.711  -0.627  1.00  0.00    +0.000 OA
ENDBRANCH  71  72
ENDBRANCH  70  71
ENDBRANCH  49  70
ENDBRANCH  46  47
ENDBRANCH  12  46
TORSDOF 25
