REMARK  Name = SANCDB_00859_minRM1.pdb
AUTHORGENERATED BY OPEN BABEL 2.3.2
REMARK  3 active torsions:
REMARK  status: ('A' for Active; 'I' for Inactive)
REMARK    1  A    between atoms: C_3  and  O_19
REMARK    2  A    between atoms: C_6  and  C_7
REMARK    3  A    between atoms: C_16  and  O_18
REMARK                            x       y       z     vdW  Elec       q    Type
REMARK                         _______ _______ _______ _____ _____    ______ ____
ROOT
ATOM      1  C   UNL     1       0.404   0.281  -0.239  1.00  0.00    +0.000 A 
ATOM      2  C   UNL     1      -0.184   1.325  -0.844  1.00  0.00    +0.000 A 
ATOM      3  O   UNL     1      -1.531   1.526  -1.026  1.00  0.00    +0.000 OA
ATOM      4  C   UNL     1      -2.388   0.571  -0.541  1.00  0.00    +0.000 A 
ATOM      5  C   UNL     1      -1.944  -0.571   0.123  1.00  0.00    +0.000 A 
ATOM      6  C   UNL     1      -0.496  -0.770   0.318  1.00  0.00    +0.000 A 
ATOM      7  O   UNL     1      -0.078  -1.758   0.911  1.00  0.00    +0.000 OA
ATOM      8  C   UNL     1      -2.865  -1.511   0.598  1.00  0.00    +0.000 A 
ATOM      9  C   UNL     1      -4.230  -1.300   0.402  1.00  0.00    +0.000 A 
ATOM     10  C   UNL     1      -4.663  -0.156  -0.263  1.00  0.00    +0.000 A 
ATOM     11  C   UNL     1      -3.753   0.785  -0.739  1.00  0.00    +0.000 A 
ENDROOT
BRANCH   1  17
ATOM     12  C   UNL     1       2.469  -0.070   1.127  1.00  0.00    +0.000 A 
ATOM     13  C   UNL     1       3.859  -0.130   1.258  1.00  0.00    +0.000 A 
ATOM     14  C   UNL     1       4.661   0.095   0.145  1.00  0.00    +0.000 A 
ATOM     15  C   UNL     1       4.095   0.374  -1.092  1.00  0.00    +0.000 A 
ATOM     16  C   UNL     1       2.705   0.430  -1.222  1.00  0.00    +0.000 A 
ATOM     17  C   UNL     1       1.873   0.215  -0.111  1.00  0.00    +0.000 A 
BRANCH  14  18
ATOM     18  O   UNL     1       6.020   0.046   0.226  1.00  0.00    +0.000 OA
ATOM     19  H   UNL     1       6.267  -0.199   1.133  1.00  0.00    +0.000 HD
ENDBRANCH  14  18
ENDBRANCH   1  17
BRANCH  10  20
ATOM     20  O   UNL     1      -6.006   0.007  -0.431  1.00  0.00    +0.000 OA
ATOM     21  H   UNL     1      -6.168   0.838  -0.908  1.00  0.00    +0.000 HD
ENDBRANCH  10  20
TORSDOF 3
