REMARK  Name = /srv/my_project/app/compsite/backup/Dave/CORINA_stuff/newPDBs/SANC00695.pdb
AUTHORGENERATED BY OPEN BABEL 2.3.2
REMARK  18 active torsions:
REMARK  status: ('A' for Active; 'I' for Inactive)
REMARK    1  A    between atoms: C_2  and  O_3
REMARK    2  A    between atoms: O_3  and  C_4
REMARK    3  A    between atoms: C_15  and  O_17
REMARK    4  A    between atoms: C_20  and  C_21
REMARK    5  A    between atoms: C_24  and  O_26
REMARK    6  A    between atoms: C_28  and  C_29
REMARK    7  A    between atoms: C_30  and  C_32
REMARK    8  A    between atoms: C_32  and  C_34
REMARK    9  A    between atoms: C_32  and  C_35
REMARK   10  A    between atoms: C_35  and  O_37
REMARK   11  A    between atoms: C_35  and  C_38
REMARK   12  A    between atoms: C_38  and  C_39
REMARK   13  A    between atoms: C_40  and  C_41
REMARK   14  A    between atoms: C_40  and  C_42
REMARK   15  A    between atoms: C_44  and  C_46
REMARK   16  A    between atoms: C_47  and  O_49
REMARK   17  A    between atoms: C_50  and  O_52
REMARK   18  A    between atoms: C_53  and  O_55
REMARK                            x       y       z     vdW  Elec       q    Type
REMARK                         _______ _______ _______ _____ _____    ______ ____
ROOT
ATOM      1  C   UNL     1      -1.025   0.997  -1.617  1.00  0.00    +0.000 C 
ATOM      2  C   UNL     1       0.376   1.534  -1.238  1.00  0.00    +0.000 C 
ATOM      3  C   UNL     1       1.199   0.276  -0.979  1.00  0.00    +0.000 C 
ATOM      4  C   UNL     1       2.544   0.414  -0.259  1.00  0.00    +0.000 C 
ATOM      5  C   UNL     1       3.468   1.365  -1.033  1.00  0.00    +0.000 C 
ATOM      6  C   UNL     1       4.885   1.315  -0.568  1.00  0.00    +0.000 C 
ATOM      7  C   UNL     1       5.400   0.349   0.213  1.00  0.00    +0.000 C 
ATOM      8  C   UNL     1       6.851   0.428   0.641  1.00  0.00    +0.000 C 
ATOM      9  C   UNL     1       7.607  -0.862   0.332  1.00  0.00    +0.000 C 
ATOM     10  C   UNL     1       6.892  -2.064   0.936  1.00  0.00    +0.000 C 
ATOM     11  C   UNL     1       5.442  -2.154   0.458  1.00  0.00    +0.000 C 
ATOM     12  C   UNL     1       4.590  -0.870   0.695  1.00  0.00    +0.000 C 
ATOM     13  C   UNL     1       4.335  -0.703   2.213  1.00  0.00    +0.000 C 
ATOM     14  C   UNL     1       3.215  -0.988  -0.103  1.00  0.00    +0.000 C 
ATOM     15  C   UNL     1       2.222  -2.062   0.444  1.00  0.00    +0.000 C 
ATOM     16  C   UNL     1       0.838  -2.051  -0.238  1.00  0.00    +0.000 C 
ATOM     17  C   UNL     1       0.205  -0.653  -0.252  1.00  0.00    +0.000 C 
ATOM     18  C   UNL     1      -0.101  -0.214   1.194  1.00  0.00    +0.000 C 
ATOM     19  C   UNL     1      -1.020  -0.510  -1.210  1.00  0.00    +0.000 C 
ENDROOT
BRANCH   9  20
ATOM     20  O   UNL     1       8.924  -0.774   0.873  1.00  0.00    +0.000 OA
ATOM     21  H   UNL     1       9.383  -1.602   0.650  1.00  0.00    +0.000 HD
ENDBRANCH   9  20
BRANCH  15  22
ATOM     22  O   UNL     1       2.765  -3.367   0.253  1.00  0.00    +0.000 OA
ATOM     23  H   UNL     1       2.155  -4.005   0.662  1.00  0.00    +0.000 HD
ENDBRANCH  15  22
BRANCH  19  24
ATOM     24  C   UNL     1      -2.362  -1.218  -0.844  1.00  0.00    +0.000 C 
ATOM     25  C   UNL     1      -3.176  -1.406  -2.139  1.00  0.00    +0.000 C 
BRANCH  24  26
ATOM     26  C   UNL     1      -3.217  -0.585   0.292  1.00  0.00    +0.000 C 
BRANCH  26  27
ATOM     27  O   UNL     1      -4.267   0.259  -0.202  1.00  0.00    +0.000 OA
ATOM     28  H   UNL     1      -4.923  -0.315  -0.636  1.00  0.00    +0.000 HD
ENDBRANCH  26  27
BRANCH  26  29
ATOM     29  C   UNL     1      -3.809  -1.616   1.285  1.00  0.00    +0.000 C 
BRANCH  29  30
ATOM     30  C   UNL     1      -4.763  -2.619   0.688  1.00  0.00    +0.000 C 
ATOM     31  C   UNL     1      -4.565  -3.936   0.482  1.00  0.00    +0.000 C 
ATOM     32  C   UNL     1      -5.660  -4.792  -0.102  1.00  0.00    +0.000 C 
ATOM     33  C   UNL     1      -3.297  -4.685   0.783  1.00  0.00    +0.000 C 
ENDBRANCH  29  30
ENDBRANCH  26  29
ENDBRANCH  24  26
ENDBRANCH  19  24
BRANCH   1  34
ATOM     34  O   UNL     1      -2.058   1.732  -0.984  1.00  0.00    +0.000 OA
BRANCH  34  35
ATOM     35  C   UNL     1      -2.213   3.060  -1.496  1.00  0.00    +0.000 C 
ATOM     36  O   UNL     1      -1.611   3.999  -0.610  1.00  0.00    +0.000 OA
ATOM     37  C   UNL     1      -2.132   3.929   0.725  1.00  0.00    +0.000 C 
ATOM     38  C   UNL     1      -1.593   5.158   1.452  1.00  0.00    +0.000 C 
ATOM     39  C   UNL     1      -3.677   3.877   0.780  1.00  0.00    +0.000 C 
ATOM     40  C   UNL     1      -4.320   4.198  -0.572  1.00  0.00    +0.000 C 
ATOM     41  C   UNL     1      -3.713   3.367  -1.716  1.00  0.00    +0.000 C 
BRANCH  39  42
ATOM     42  O   UNL     1      -4.122   2.603   1.257  1.00  0.00    +0.000 OA
ATOM     43  H   UNL     1      -3.914   1.910   0.590  1.00  0.00    +0.000 HD
ENDBRANCH  39  42
BRANCH  40  44
ATOM     44  O   UNL     1      -4.175   5.599  -0.887  1.00  0.00    +0.000 OA
ATOM     45  H   UNL     1      -4.666   6.095  -0.207  1.00  0.00    +0.000 HD
ENDBRANCH  40  44
BRANCH  41  46
ATOM     46  O   UNL     1      -3.907   4.094  -2.947  1.00  0.00    +0.000 OA
ATOM     47  H   UNL     1      -3.837   5.037  -2.682  1.00  0.00    +0.000 HD
ENDBRANCH  41  46
ENDBRANCH  34  35
ENDBRANCH   1  34
TORSDOF 12
