REMARK  Name = /srv/my_project/app/compsite/backup/Dave/CORINA_stuff/newPDBs/SANC00458.pdb
AUTHORGENERATED BY OPEN BABEL 2.3.2
REMARK  5 active torsions:
REMARK  status: ('A' for Active; 'I' for Inactive)
REMARK    1  A    between atoms: C_1  and  O_2
REMARK    2  A    between atoms: O_2  and  C_3
REMARK    3  A    between atoms: C_6  and  O_8
REMARK    4  A    between atoms: C_10  and  C_12
REMARK    5  A    between atoms: C_13  and  O_15
REMARK                            x       y       z     vdW  Elec       q    Type
REMARK                         _______ _______ _______ _____ _____    ______ ____
ROOT
ATOM      1  C   UNL     1       1.105   0.591   0.090  1.00  0.00    +0.000 C 
ATOM      2  C   UNL     1       0.563   1.674  -0.853  1.00  0.00    +0.000 C 
ATOM      3  C   UNL     1      -0.864   1.394  -1.329  1.00  0.00    +0.000 C 
ATOM      4  O   UNL     1      -1.145   0.017  -1.496  1.00  0.00    +0.000 OA
ATOM      5  C   UNL     1      -0.933  -0.803  -0.335  1.00  0.00    +0.000 C 
ATOM      6  C   UNL     1      -2.292  -1.240   0.207  1.00  0.00    +0.000 C 
ATOM      7  C   UNL     1      -0.071  -0.144   0.756  1.00  0.00    +0.000 C 
ENDROOT
BRANCH   1   9
ATOM      8  C   UNL     1       2.708  -1.208   0.014  1.00  0.00    +0.000 C 
ATOM      9  O   UNL     1       1.948  -0.255  -0.714  1.00  0.00    +0.000 OA
ENDBRANCH   1   9
BRANCH   3  10
ATOM     10  O   UNL     1      -1.796   1.964  -0.423  1.00  0.00    +0.000 OA
ATOM     11  H   UNL     1      -2.643   1.952  -0.902  1.00  0.00    +0.000 HD
ENDBRANCH   3  10
BRANCH   7  12
ATOM     12  O   UNL     1       0.355  -1.105   1.726  1.00  0.00    +0.000 OA
ATOM     13  H   UNL     1       0.815  -0.618   2.430  1.00  0.00    +0.000 HD
ENDBRANCH   7  12
TORSDOF 3
