REMARK  Name = /srv/my_project/app/compsite/backup/Dave/CORINA_stuff/newPDBs/SANC00257.pdb
AUTHORGENERATED BY OPEN BABEL 2.3.2
REMARK  8 active torsions:
REMARK  status: ('A' for Active; 'I' for Inactive)
REMARK    1  A    between atoms: C_4  and  C_5
REMARK    2  A    between atoms: C_4  and  O_6
REMARK    3  A    between atoms: C_10  and  C_11
REMARK    4  A    between atoms: C_14  and  C_15
REMARK    5  A    between atoms: C_20  and  C_21
REMARK    6  A    between atoms: C_22  and  O_23
REMARK    7  A    between atoms: C_28  and  C_29
REMARK    8  A    between atoms: C_32  and  C_33
REMARK                            x       y       z     vdW  Elec       q    Type
REMARK                         _______ _______ _______ _____ _____    ______ ____
ROOT
ATOM      1  C   UNL     1      -2.329  -0.646  -0.443  1.00  0.00    +0.000 C 
ATOM      2  C   UNL     1      -2.887  -0.924  -1.875  1.00  0.00    +0.000 C 
ATOM      3  C   UNL     1      -4.389  -1.224  -1.929  1.00  0.00    +0.000 C 
ATOM      4  C   UNL     1      -4.853  -1.350  -3.380  1.00  0.00    +0.000 C 
ATOM      5  C   UNL     1      -5.170  -0.110  -1.232  1.00  0.00    +0.000 C 
ATOM      6  O   UNL     1      -6.402  -0.079  -1.244  1.00  0.00    +0.000 OA
ATOM      7  C   UNL     1      -4.359   0.938  -0.506  1.00  0.00    +0.000 C 
ATOM      8  C   UNL     1      -3.283   0.285   0.405  1.00  0.00    +0.000 C 
ATOM      9  C   UNL     1      -4.057  -0.539   1.476  1.00  0.00    +0.000 C 
ATOM     10  C   UNL     1      -2.555   1.430   1.149  1.00  0.00    +0.000 C 
ATOM     11  C   UNL     1      -1.109   1.218   1.621  1.00  0.00    +0.000 C 
ATOM     12  C   UNL     1      -0.286   0.045   0.993  1.00  0.00    +0.000 C 
ATOM     13  C   UNL     1      -0.500  -1.184   1.922  1.00  0.00    +0.000 C 
ATOM     14  C   UNL     1       1.259   0.303   1.020  1.00  0.00    +0.000 C 
ATOM     15  C   UNL     1       1.810   1.242   1.817  1.00  0.00    +0.000 C 
ATOM     16  C   UNL     1       3.225   1.504   1.864  1.00  0.00    +0.000 C 
ATOM     17  C   UNL     1       4.100   1.018   0.965  1.00  0.00    +0.000 C 
ATOM     18  C   UNL     1       5.534   1.379   1.006  1.00  0.00    +0.000 C 
ATOM     19  C   UNL     1       6.085   1.944   2.293  1.00  0.00    +0.000 C 
ATOM     20  C   UNL     1       6.297   1.171  -0.090  1.00  0.00    +0.000 C 
ATOM     21  C   UNL     1       5.701   0.502  -1.296  1.00  0.00    +0.000 C 
ATOM     22  O   UNL     1       6.299   0.409  -2.364  1.00  0.00    +0.000 OA
ATOM     23  C   UNL     1       4.359  -0.104  -1.155  1.00  0.00    +0.000 C 
ATOM     24  C   UNL     1       3.588   0.109  -0.073  1.00  0.00    +0.000 C 
ATOM     25  C   UNL     1       2.202  -0.576   0.153  1.00  0.00    +0.000 C 
ATOM     26  C   UNL     1       2.527  -1.898   0.897  1.00  0.00    +0.000 C 
ATOM     27  C   UNL     1       1.547  -0.914  -1.210  1.00  0.00    +0.000 C 
ATOM     28  C   UNL     1       0.064  -1.279  -1.156  1.00  0.00    +0.000 C 
ATOM     29  C   UNL     1      -0.809  -0.184  -0.478  1.00  0.00    +0.000 C 
ATOM     30  C   UNL     1      -0.650   1.107  -1.343  1.00  0.00    +0.000 C 
ENDROOT
BRANCH   3  31
ATOM     31  O   UNL     1      -4.639  -2.462  -1.270  1.00  0.00    +0.000 OA
ATOM     32  H   UNL     1      -5.609  -2.583  -1.265  1.00  0.00    +0.000 HD
ENDBRANCH   3  31
BRANCH  20  33
ATOM     33  O   UNL     1       7.629   1.534  -0.188  1.00  0.00    +0.000 OA
ATOM     34  H   UNL     1       7.840   2.189   0.491  1.00  0.00    +0.000 HD
ENDBRANCH  20  33
TORSDOF 2
