REMARK  Name = /srv/my_project/app/compsite/backup/Dave/CORINA_stuff/newPDBs/SANC00192.pdb
AUTHORGENERATED BY OPEN BABEL 2.3.2
REMARK  5 active torsions:
REMARK  status: ('A' for Active; 'I' for Inactive)
REMARK    1  A    between atoms: O_1  and  C_2
REMARK    2  A    between atoms: C_9  and  C_19
REMARK    3  A    between atoms: C_12  and  C_16
REMARK    4  A    between atoms: C_16  and  C_17
REMARK    5  A    between atoms: C_16  and  C_18
REMARK                            x       y       z     vdW  Elec       q    Type
REMARK                         _______ _______ _______ _____ _____    ______ ____
ROOT
ATOM      1  C   UNL     1      -0.716   1.176  -0.067  1.00  0.00    +0.000 C 
ATOM      2  C   UNL     1      -1.915   1.404   0.833  1.00  0.00    +0.000 C 
ATOM      3  C   UNL     1      -1.887   2.343   1.798  1.00  0.00    +0.000 C 
ATOM      4  C   UNL     1      -3.154   0.573   0.618  1.00  0.00    +0.000 C 
ATOM      5  C   UNL     1      -2.926  -0.933   0.734  1.00  0.00    +0.000 C 
ATOM      6  C   UNL     1      -2.112  -1.492  -0.431  1.00  0.00    +0.000 C 
ATOM      7  C   UNL     1      -0.576  -1.458  -0.254  1.00  0.00    +0.000 C 
ATOM      8  C   UNL     1       0.107  -1.701  -1.628  1.00  0.00    +0.000 C 
ATOM      9  C   UNL     1       1.285  -0.735  -1.727  1.00  0.00    +0.000 C 
ATOM     10  C   UNL     1       1.498  -0.194  -0.316  1.00  0.00    +0.000 C 
ATOM     11  C   UNL     1       0.054  -0.124   0.272  1.00  0.00    +0.000 C 
ATOM     12  C   UNL     1      -0.183  -2.618   0.701  1.00  0.00    +0.000 C 
ENDROOT
BRANCH  10  13
ATOM     13  C   UNL     1       2.373   1.080  -0.254  1.00  0.00    +0.000 C 
ATOM     14  C   UNL     1       3.749   0.849  -0.893  1.00  0.00    +0.000 C 
ATOM     15  C   UNL     1       2.573   1.547   1.192  1.00  0.00    +0.000 C 
ENDBRANCH  10  13
BRANCH   1  16
ATOM     16  O   UNL     1      -1.121   1.230  -1.427  1.00  0.00    +0.000 OA
ATOM     17  H   UNL     1      -1.658   2.034  -1.525  1.00  0.00    +0.000 HD
ENDBRANCH   1  16
TORSDOF 2
