REMARK  Name = SANCDB_01054_minRM1.pdb
AUTHORGENERATED BY OPEN BABEL 2.3.2
REMARK  11 active torsions:
REMARK  status: ('A' for Active; 'I' for Inactive)
REMARK    1  A    between atoms: C_1  and  O_2
REMARK    2  A    between atoms: O_2  and  C_3
REMARK    3  A    between atoms: C_4  and  O_39
REMARK    4  A    between atoms: C_6  and  C_9
REMARK    5  A    between atoms: C_20  and  O_38
REMARK    6  A    between atoms: C_24  and  C_28
REMARK    7  A    between atoms: C_30  and  O_36
REMARK    8  A    between atoms: C_31  and  O_34
REMARK    9  A    between atoms: O_34  and  C_35
REMARK   10  A    between atoms: O_36  and  C_37
REMARK   11  A    between atoms: O_39  and  C_40
REMARK                            x       y       z     vdW  Elec       q    Type
REMARK                         _______ _______ _______ _____ _____    ______ ____
ROOT
ATOM      1  C   UNL     1      -2.714  -0.662  -0.602  1.00  0.00    +0.000 C 
ATOM      2  C   UNL     1      -3.119  -1.925  -1.377  1.00  0.00    +0.000 C 
ATOM      3  C   UNL     1      -4.329  -2.463  -0.625  1.00  0.00    +0.000 C 
ATOM      4  N   UNL     1      -4.251  -1.968   0.759  1.00  0.00    +0.000 NA
ATOM      5  C   UNL     1      -3.028  -1.129   0.855  1.00  0.00    +0.000 C 
ATOM      6  C   UNL     1      -1.900  -1.963   1.487  1.00  0.00    +0.000 C 
ATOM      7  C   UNL     1      -0.535  -1.246   1.413  1.00  0.00    +0.000 C 
ATOM      8  C   UNL     1      -0.301  -0.560   0.090  1.00  0.00    +0.000 C 
ATOM      9  C   UNL     1      -1.243  -0.364  -0.847  1.00  0.00    +0.000 C 
ATOM     10  C   UNL     1       1.103   0.003   0.028  1.00  0.00    +0.000 C 
ATOM     11  C   UNL     1       1.046   1.138   1.067  1.00  0.00    +0.000 C 
ATOM     12  C   UNL     1       0.663   0.547   2.436  1.00  0.00    +0.000 C 
ATOM     13  O   UNL     1      -0.566  -0.175   2.377  1.00  0.00    +0.000 OA
ATOM     14  C   UNL     1       1.746  -0.399   2.906  1.00  0.00    +0.000 C 
ATOM     15  C   UNL     1       1.843  -1.530   1.898  1.00  0.00    +0.000 C 
ATOM     16  C   UNL     1       2.174  -1.089   0.439  1.00  0.00    +0.000 C 
ATOM     17  C   UNL     1       1.867  -2.411  -0.312  1.00  0.00    +0.000 C 
ATOM     18  C   UNL     1       0.831  -3.124   0.572  1.00  0.00    +0.000 C 
ATOM     19  N   UNL     1       0.546  -2.224   1.719  1.00  0.00    +0.000 NA
ATOM     20  H   UNL     1      -5.059  -1.363   0.920  1.00  0.00    +0.000 HD
ENDROOT
BRANCH   1  24
ATOM     21  C   UNL     1      -4.971   3.025  -1.427  1.00  0.00    +0.000 A 
ATOM     22  C   UNL     1      -5.178   1.883  -2.217  1.00  0.00    +0.000 A 
ATOM     23  C   UNL     1      -4.477   0.695  -1.948  1.00  0.00    +0.000 A 
ATOM     24  C   UNL     1      -3.526   0.615  -0.921  1.00  0.00    +0.000 A 
ATOM     25  C   UNL     1      -3.298   1.784  -0.172  1.00  0.00    +0.000 A 
ATOM     26  C   UNL     1      -4.010   2.965  -0.415  1.00  0.00    +0.000 A 
BRANCH  21  28
ATOM     27  C   UNL     1      -5.655   5.220  -0.778  1.00  0.00    +0.000 C 
ATOM     28  O   UNL     1      -5.736   4.130  -1.687  1.00  0.00    +0.000 OA
ENDBRANCH  21  28
BRANCH  22  29
ATOM     29  O   UNL     1      -6.078   1.764  -3.249  1.00  0.00    +0.000 OA
ATOM     30  C   UNL     1      -6.186   2.898  -4.103  1.00  0.00    +0.000 C 
ENDBRANCH  22  29
ENDBRANCH   1  24
BRANCH  16  31
ATOM     31  C   UNL     1       3.641  -0.681   0.230  1.00  0.00    +0.000 A 
ATOM     32  C   UNL     1       4.686  -1.471   0.756  1.00  0.00    +0.000 A 
ATOM     33  C   UNL     1       6.038  -1.132   0.587  1.00  0.00    +0.000 A 
ATOM     34  C   UNL     1       6.377   0.020  -0.140  1.00  0.00    +0.000 A 
ATOM     35  C   UNL     1       5.359   0.801  -0.684  1.00  0.00    +0.000 A 
ATOM     36  C   UNL     1       4.014   0.452  -0.505  1.00  0.00    +0.000 A 
BRANCH  34  37
ATOM     37  O   UNL     1       7.717   0.288  -0.265  1.00  0.00    +0.000 OA
ATOM     38  C   UNL     1       8.092   1.458  -0.976  1.00  0.00    +0.000 C 
ENDBRANCH  34  37
BRANCH  33  39
ATOM     39  O   UNL     1       7.090  -1.863   1.082  1.00  0.00    +0.000 OA
ATOM     40  C   UNL     1       6.793  -2.996   1.886  1.00  0.00    +0.000 C 
ENDBRANCH  33  39
ENDBRANCH  16  31
BRANCH  12  41
ATOM     41  O   UNL     1       0.508   1.613   3.355  1.00  0.00    +0.000 OA
ATOM     42  H   UNL     1       0.242   1.187   4.188  1.00  0.00    +0.000 HD
ENDBRANCH  12  41
TORSDOF 7
