REMARK  Name = SANCDB01131.pdb
REMARK  7 active torsions:
REMARK  status: ('A' for Active; 'I' for Inactive)
REMARK    1  A    between atoms: C_1  and  O_2
REMARK    2  A    between atoms: O_2  and  C_3
REMARK    3  A    between atoms: C_4  and  O_5
REMARK    4  A    between atoms: C_9  and  C_13
REMARK    5  A    between atoms: C_15  and  O_16
REMARK    6  A    between atoms: C_17  and  O_18
REMARK    7  A    between atoms: C_22  and  O_23
REMARK                            x       y       z     vdW  Elec       q    Type
REMARK                         _______ _______ _______ _____ _____    ______ ____
ROOT
ATOM      1  C   UNL     1       3.788   0.191  -0.279  1.00  0.00    +0.000 A 
ATOM      2  C   UNL     1       2.976  -0.957  -0.162  1.00  0.00    +0.000 A 
ATOM      3  C   UNL     1       1.583  -0.864  -0.097  1.00  0.00    +0.000 A 
ATOM      4  C   UNL     1       0.994   0.399  -0.150  1.00  0.00    +0.000 A 
ATOM      5  O   UNL     1      -0.363   0.606  -0.095  1.00  0.00    +0.000 OA
ATOM      6  C   UNL     1      -1.193  -0.492   0.025  1.00  0.00    +0.000 A 
ATOM      7  C   UNL     1      -0.758  -1.758   0.076  1.00  0.00    +0.000 A 
ATOM      8  C   UNL     1       0.689  -2.037   0.026  1.00  0.00    +0.000 A 
ATOM      9  O   UNL     1       1.063  -3.200   0.094  1.00  0.00    +0.000 OA
ATOM     10  C   UNL     1       1.780   1.549  -0.266  1.00  0.00    +0.000 A 
ATOM     11  C   UNL     1       3.172   1.447  -0.329  1.00  0.00    +0.000 A 
ENDROOT
BRANCH   6  12
ATOM     12  C   UNL     1      -2.631  -0.163   0.071  1.00  0.00    +0.000 A 
ATOM     13  C   UNL     1      -3.489  -0.768   1.005  1.00  0.00    +0.000 A 
ATOM     14  C   UNL     1      -4.837  -0.423   1.028  1.00  0.00    +0.000 A 
ATOM     15  C   UNL     1      -5.340   0.521   0.138  1.00  0.00    +0.000 A 
ATOM     16  C   UNL     1      -4.510   1.135  -0.786  1.00  0.00    +0.000 A 
ATOM     17  C   UNL     1      -3.155   0.795  -0.817  1.00  0.00    +0.000 A 
BRANCH  14  18
ATOM     18  O   UNL     1      -5.713  -0.984   1.917  1.00  0.00    +0.000 OA
ATOM     19  H   UNL     1      -5.226  -1.621   2.469  1.00  0.00    +0.000 HD
ENDBRANCH  14  18
BRANCH  15  20
ATOM     20  O   UNL     1      -6.663   0.853   0.169  1.00  0.00    +0.000 OA
ATOM     21  H   UNL     1      -7.038   0.303   0.886  1.00  0.00    +0.000 HD
ENDBRANCH  15  20
ENDBRANCH   6  12
BRANCH   1  23
ATOM     22  C   UNL     1       6.050   0.973  -0.460  1.00  0.00    +0.000 C 
ATOM     23  O   UNL     1       5.129  -0.101  -0.328  1.00  0.00    +0.000 OA
ENDBRANCH   1  23
BRANCH   2  24
ATOM     24  O   UNL     1       3.603  -2.177  -0.113  1.00  0.00    +0.000 OA
ATOM     25  H   UNL     1       4.561  -1.992  -0.175  1.00  0.00    +0.000 HD
ENDBRANCH   2  24
BRANCH  11  26
ATOM     26  O   UNL     1       3.900   2.598  -0.440  1.00  0.00    +0.000 OA
ATOM     27  H   UNL     1       3.304   3.365  -0.455  1.00  0.00    +0.000 HD
ENDBRANCH  11  26
TORSDOF 6
