REMARK  Name = SANCDB_00816_minRM1.pdb
AUTHORGENERATED BY OPEN BABEL 2.3.2
REMARK  4 active torsions:
REMARK  status: ('A' for Active; 'I' for Inactive)
REMARK    1  A    between atoms: C_6  and  O_7
REMARK    2  A    between atoms: O_7  and  C_8
REMARK    3  A    between atoms: C_8  and  C_10
REMARK    4  A    between atoms: C_15  and  O_16
REMARK                            x       y       z     vdW  Elec       q    Type
REMARK                         _______ _______ _______ _____ _____    ______ ____
ROOT
ATOM      1  C   UNL     1      -2.747   1.543  -0.221  1.00  0.00    +0.000 C 
ATOM      2  C   UNL     1      -2.075   1.307  -1.601  1.00  0.00    +0.000 C 
ATOM      3  N   UNL     1      -0.682   0.824  -1.595  1.00  0.00    +0.000 NA
ATOM      4  C   UNL     1       0.286   1.877  -1.923  1.00  0.00    +0.000 C 
ATOM      5  C   UNL     1       1.714   1.350  -1.982  1.00  0.00    +0.000 C 
ATOM      6  C   UNL     1       2.098   0.664  -0.676  1.00  0.00    +0.000 C 
ATOM      7  C   UNL     1       1.105  -0.470  -0.387  1.00  0.00    +0.000 C 
ATOM      8  C   UNL     1      -0.358   0.053  -0.384  1.00  0.00    +0.000 C 
ATOM      9  C   UNL     1      -0.748   0.765   0.956  1.00  0.00    +0.000 C 
ATOM     10  C   UNL     1      -1.538  -0.223   1.821  1.00  0.00    +0.000 C 
ATOM     11  N   UNL     1      -2.818  -0.600   1.211  1.00  0.00    +0.000 N 
ATOM     12  C   UNL     1      -3.500  -1.662   1.808  1.00  0.00    +0.000 C 
ATOM     13  O   UNL     1      -2.977  -2.440   2.603  1.00  0.00    +0.000 OA
ATOM     14  C   UNL     1      -4.978  -1.739   1.490  1.00  0.00    +0.000 C 
ATOM     15  C   UNL     1      -5.301  -1.465   0.030  1.00  0.00    +0.000 C 
ATOM     16  C   UNL     1      -4.439  -0.374  -0.605  1.00  0.00    +0.000 C 
ATOM     17  C   UNL     1      -3.579   0.381   0.416  1.00  0.00    +0.000 C 
ATOM     18  C   UNL     1      -1.668   1.977   0.760  1.00  0.00    +0.000 C 
ENDROOT
BRANCH   7  19
ATOM     19  O   UNL     1       1.431  -1.105   0.852  1.00  0.00    +0.000 OA
ATOM     20  H   UNL     1       0.947  -1.949   0.882  1.00  0.00    +0.000 HD
ENDBRANCH   7  19
BRANCH   6  21
ATOM     21  O   UNL     1       3.416   0.104  -0.853  1.00  0.00    +0.000 OA
BRANCH  21  22
ATOM     22  C   UNL     1       4.264   0.210   0.205  1.00  0.00    +0.000 C 
ATOM     23  O   UNL     1       4.053   0.830   1.239  1.00  0.00    +0.000 OA
BRANCH  22  24
ATOM     24  C   UNL     1       5.489  -0.500  -0.074  1.00  0.00    +0.000 A 
ATOM     25  C   UNL     1       5.901  -1.213  -1.189  1.00  0.00    +0.000 A 
ATOM     26  C   UNL     1       7.203  -1.710  -0.936  1.00  0.00    +0.000 A 
ATOM     27  C   UNL     1       7.560  -1.295   0.326  1.00  0.00    +0.000 A 
ATOM     28  N   UNL     1       6.519  -0.567   0.839  1.00  0.00    +0.000 N 
ATOM     29  H   UNL     1       6.489  -0.136   1.755  1.00  0.00    +0.000 HD
ENDBRANCH  22  24
ENDBRANCH  21  22
ENDBRANCH   6  21
TORSDOF 4
