REMARK  Name = SANCDB_01106_minRM1.pdb
AUTHORGENERATED BY OPEN BABEL 2.3.2
REMARK  9 active torsions:
REMARK  status: ('A' for Active; 'I' for Inactive)
REMARK    1  A    between atoms: C_1  and  C_2
REMARK    2  A    between atoms: C_2  and  C_4
REMARK    3  A    between atoms: C_7  and  C_31
REMARK    4  A    between atoms: C_13  and  C_30
REMARK    5  A    between atoms: C_18  and  C_28
REMARK    6  A    between atoms: C_18  and  C_29
REMARK    7  A    between atoms: C_22  and  C_27
REMARK    8  A    between atoms: C_23  and  C_26
REMARK    9  A    between atoms: C_31  and  O_33
REMARK                            x       y       z     vdW  Elec       q    Type
REMARK                         _______ _______ _______ _____ _____    ______ ____
ROOT
ATOM      1  C   UNL     1       4.376  -0.076   0.277  1.00  0.00    +0.000 C 
ATOM      2  C   UNL     1       5.497   0.991   0.157  1.00  0.00    +0.000 C 
ATOM      3  C   UNL     1       4.810   2.312  -0.228  1.00  0.00    +0.000 C 
ATOM      4  C   UNL     1       3.494   1.871  -0.879  1.00  0.00    +0.000 C 
ATOM      5  C   UNL     1       3.075   0.737   0.090  1.00  0.00    +0.000 C 
ATOM      6  C   UNL     1       1.771   0.053  -0.378  1.00  0.00    +0.000 C 
ATOM      7  C   UNL     1       1.425  -1.239   0.379  1.00  0.00    +0.000 C 
ATOM      8  C   UNL     1       0.107  -1.892  -0.076  1.00  0.00    +0.000 C 
ATOM      9  C   UNL     1      -1.042  -0.873  -0.040  1.00  0.00    +0.000 C 
ATOM     10  C   UNL     1      -2.521  -1.423  -0.068  1.00  0.00    +0.000 C 
ATOM     11  C   UNL     1      -2.669  -2.640   0.892  1.00  0.00    +0.000 C 
ATOM     12  C   UNL     1      -4.111  -3.053   1.167  1.00  0.00    +0.000 C 
ATOM     13  C   UNL     1      -4.963  -1.894   1.634  1.00  0.00    +0.000 C 
ATOM     14  O   UNL     1      -5.752  -2.053   2.568  1.00  0.00    +0.000 OA
ATOM     15  C   UNL     1      -4.891  -0.580   0.836  1.00  0.00    +0.000 C 
ATOM     16  C   UNL     1      -3.385  -0.265   0.542  1.00  0.00    +0.000 C 
ATOM     17  C   UNL     1      -3.127   1.127  -0.080  1.00  0.00    +0.000 C 
ATOM     18  C   UNL     1      -2.000   1.271  -1.105  1.00  0.00    +0.000 C 
ATOM     19  C   UNL     1      -0.746   0.350  -0.993  1.00  0.00    +0.000 C 
ATOM     20  C   UNL     1       0.576   1.101  -0.420  1.00  0.00    +0.000 C 
ATOM     21  C   UNL     1       1.028   2.320  -1.304  1.00  0.00    +0.000 C 
ATOM     22  C   UNL     1       2.392   2.936  -0.918  1.00  0.00    +0.000 C 
ATOM     23  C   UNL     1       0.285   1.682   1.001  1.00  0.00    +0.000 C 
ATOM     24  C   UNL     1      -0.461  -0.106  -2.467  1.00  0.00    +0.000 C 
ATOM     25  C   UNL     1      -5.490   0.545   1.717  1.00  0.00    +0.000 C 
ATOM     26  C   UNL     1      -5.782  -0.720  -0.407  1.00  0.00    +0.000 C 
ATOM     27  C   UNL     1      -2.946  -1.874  -1.473  1.00  0.00    +0.000 C 
ENDROOT
BRANCH   1  29
ATOM     28  C   UNL     1       4.204  -0.212   2.874  1.00  0.00    +0.000 C 
ATOM     29  C   UNL     1       4.500  -0.884   1.560  1.00  0.00    +0.000 C 
ATOM     30  C   UNL     1       4.887  -2.172   1.527  1.00  0.00    +0.000 C 
ENDBRANCH   1  29
BRANCH   4  31
ATOM     31  C   UNL     1       3.822   1.428  -2.316  1.00  0.00    +0.000 C 
ATOM     32  O   UNL     1       3.824   0.296  -2.769  1.00  0.00    +0.000 OA
BRANCH  31  33
ATOM     33  O   UNL     1       4.171   2.457  -3.116  1.00  0.00    +0.000 OA
ATOM     34  H   UNL     1       4.365   2.029  -3.977  1.00  0.00    +0.000 HD
ENDBRANCH  31  33
ENDBRANCH   4  31
TORSDOF 3
