REMARK  Name = /srv/my_project/app/compsite/backup/Dave/CORINA_stuff/newPDBs/SANC00238.pdb
AUTHORGENERATED BY OPEN BABEL 2.3.2
REMARK  0 active torsions:
REMARK  status: ('A' for Active; 'I' for Inactive)
REMARK                            x       y       z     vdW  Elec       q    Type
REMARK                         _______ _______ _______ _____ _____    ______ ____
ROOT
ATOM      1  C   UNL     1      -2.098   0.955   0.308  1.00  0.00    +0.000 C 
ATOM      2  C   UNL     1      -2.433  -0.480  -0.192  1.00  0.00    +0.000 C 
ATOM      3  N   UNL     1      -1.415  -1.485   0.198  1.00  0.00    +0.000 N 
ATOM      4  C   UNL     1      -0.056  -1.203   0.098  1.00  0.00    +0.000 C 
ATOM      5  C   UNL     1       0.935  -2.110   0.037  1.00  0.00    +0.000 C 
ATOM      6  C   UNL     1       2.371  -1.683  -0.082  1.00  0.00    +0.000 C 
ATOM      7  O   UNL     1       3.256  -2.529  -0.137  1.00  0.00    +0.000 OA
ATOM      8  C   UNL     1       2.706  -0.165  -0.144  1.00  0.00    +0.000 C 
ATOM      9  O   UNL     1       3.849   0.249  -0.255  1.00  0.00    +0.000 OA
ATOM     10  C   UNL     1       1.541   0.665  -0.057  1.00  0.00    +0.000 A 
ATOM     11  C   UNL     1       0.273   0.179   0.059  1.00  0.00    +0.000 A 
ATOM     12  C   UNL     1      -0.644   1.237   0.138  1.00  0.00    +0.000 A 
ATOM     13  C   UNL     1       0.104   2.393   0.055  1.00  0.00    +0.000 A 
ATOM     14  N   UNL     1       1.438   2.034  -0.066  1.00  0.00    +0.000 N 
ATOM     15  H   UNL     1      -1.660  -2.446  -0.025  1.00  0.00    +0.000 HD
ATOM     16  H   UNL     1       2.220   2.674  -0.139  1.00  0.00    +0.000 HD
ENDROOT
TORSDOF 0
