REMARK  Name = SANCDB_01083_minRM1.pdb
AUTHORGENERATED BY OPEN BABEL 2.3.2
REMARK  14 active torsions:
REMARK  status: ('A' for Active; 'I' for Inactive)
REMARK    1  A    between atoms: C_3  and  O_31
REMARK    2  A    between atoms: C_6  and  C_7
REMARK    3  A    between atoms: C_7  and  C_8
REMARK    4  A    between atoms: C_8  and  C_9
REMARK    5  A    between atoms: C_9  and  C_11
REMARK    6  A    between atoms: C_12  and  O_30
REMARK    7  A    between atoms: C_14  and  O_29
REMARK    8  A    between atoms: C_15  and  C_18
REMARK    9  A    between atoms: C_16  and  O_17
REMARK   10  A    between atoms: C_19  and  O_28
REMARK   11  A    between atoms: C_20  and  O_27
REMARK   12  A    between atoms: C_21  and  O_26
REMARK   13  A    between atoms: C_22  and  C_24
REMARK   14  A    between atoms: C_24  and  O_25
REMARK                            x       y       z     vdW  Elec       q    Type
REMARK                         _______ _______ _______ _____ _____    ______ ____
ROOT
ATOM      1  C   UNL     1       0.430  -1.932   1.872  1.00  0.00    +0.000 A 
ATOM      2  C   UNL     1       0.197  -2.332   3.198  1.00  0.00    +0.000 A 
ATOM      3  C   UNL     1      -0.907  -1.869   3.908  1.00  0.00    +0.000 A 
ATOM      4  C   UNL     1      -1.802  -0.997   3.294  1.00  0.00    +0.000 A 
ATOM      5  C   UNL     1      -1.626  -0.581   1.966  1.00  0.00    +0.000 A 
ATOM      6  C   UNL     1      -0.509  -1.082   1.260  1.00  0.00    +0.000 A 
ENDROOT
BRANCH   5   7
ATOM      7  C   UNL     1      -2.586   0.438   1.366  1.00  0.00    +0.000 C 
ATOM      8  C   UNL     1      -2.025   1.875   1.461  1.00  0.00    +0.000 C 
ATOM      9  C   UNL     1      -2.989   2.841   0.766  1.00  0.00    +0.000 C 
ATOM     10  C   UNL     1      -3.308   2.394  -0.661  1.00  0.00    +0.000 C 
ATOM     11  C   UNL     1      -3.780   0.929  -0.653  1.00  0.00    +0.000 C 
ATOM     12  O   UNL     1      -2.804   0.085  -0.023  1.00  0.00    +0.000 OA
BRANCH  10  13
ATOM     13  O   UNL     1      -4.295   3.292  -1.182  1.00  0.00    +0.000 OA
ATOM     14  H   UNL     1      -4.698   2.844  -1.960  1.00  0.00    +0.000 HD
ENDBRANCH  10  13
BRANCH   9  15
ATOM     15  O   UNL     1      -2.406   4.155   0.748  1.00  0.00    +0.000 OA
ATOM     16  H   UNL     1      -2.993   4.680   0.165  1.00  0.00    +0.000 HD
ENDBRANCH   9  15
BRANCH   8  17
ATOM     17  O   UNL     1      -1.855   2.314   2.813  1.00  0.00    +0.000 OA
ATOM     18  H   UNL     1      -1.677   3.274   2.750  1.00  0.00    +0.000 HD
ENDBRANCH   8  17
BRANCH  11  19
ATOM     19  C   UNL     1      -4.006   0.405  -2.079  1.00  0.00    +0.000 C 
BRANCH  19  20
ATOM     20  O   UNL     1      -4.919   1.235  -2.791  1.00  0.00    +0.000 OA
ATOM     21  H   UNL     1      -5.103   0.787  -3.638  1.00  0.00    +0.000 HD
ENDBRANCH  19  20
ENDBRANCH  11  19
ENDBRANCH   5   7
BRANCH   1  22
ATOM     22  C   UNL     1       1.658  -2.437   1.183  1.00  0.00    +0.000 C 
ATOM     23  O   UNL     1       2.188  -3.458   1.631  1.00  0.00    +0.000 OA
BRANCH  22  24
ATOM     24  C   UNL     1       2.241  -1.683   0.005  1.00  0.00    +0.000 C 
BRANCH  24  25
ATOM     25  C   UNL     1       3.712  -2.043  -0.211  1.00  0.00    +0.000 C 
BRANCH  25  31
ATOM     26  C   UNL     1       4.225  -1.732  -2.665  1.00  0.00    +0.000 A 
ATOM     27  C   UNL     1       4.760  -0.992  -3.721  1.00  0.00    +0.000 A 
ATOM     28  C   UNL     1       5.380   0.225  -3.464  1.00  0.00    +0.000 A 
ATOM     29  C   UNL     1       5.473   0.718  -2.167  1.00  0.00    +0.000 A 
ATOM     30  C   UNL     1       4.936  -0.023  -1.111  1.00  0.00    +0.000 A 
ATOM     31  C   UNL     1       4.312  -1.255  -1.350  1.00  0.00    +0.000 A 
BRANCH  28  32
ATOM     32  O   UNL     1       5.889   0.915  -4.524  1.00  0.00    +0.000 OA
ATOM     33  H   UNL     1       6.306   1.726  -4.191  1.00  0.00    +0.000 HD
ENDBRANCH  28  32
ENDBRANCH  25  31
ENDBRANCH  24  25
ENDBRANCH  22  24
ENDBRANCH   1  22
BRANCH   6  34
ATOM     34  O   UNL     1      -0.363  -0.763  -0.066  1.00  0.00    +0.000 OA
ATOM     35  H   UNL     1      -1.251  -0.513  -0.398  1.00  0.00    +0.000 HD
ENDBRANCH   6  34
BRANCH   4  36
ATOM     36  O   UNL     1      -2.885  -0.545   3.995  1.00  0.00    +0.000 OA
ATOM     37  H   UNL     1      -2.758  -0.751   4.937  1.00  0.00    +0.000 HD
ENDBRANCH   4  36
BRANCH   2  38
ATOM     38  O   UNL     1       1.018  -3.193   3.882  1.00  0.00    +0.000 OA
ATOM     39  H   UNL     1       1.661  -3.569   3.239  1.00  0.00    +0.000 HD
ENDBRANCH   2  38
TORSDOF 14
