REMARK  Name = /srv/my_project/app/compsite/backup/Dave/CORINA_stuff/newPDBs/SANC00435.pdb
AUTHORGENERATED BY OPEN BABEL 2.3.2
REMARK  5 active torsions:
REMARK  status: ('A' for Active; 'I' for Inactive)
REMARK    1  A    between atoms: C_1  and  C_2
REMARK    2  A    between atoms: C_12  and  O_28
REMARK    3  A    between atoms: C_13  and  C_14
REMARK    4  A    between atoms: C_23  and  O_27
REMARK    5  A    between atoms: C_25  and  C_26
REMARK                            x       y       z     vdW  Elec       q    Type
REMARK                         _______ _______ _______ _____ _____    ______ ____
ROOT
ATOM      1  C   UNL     1       0.258  -2.545   1.193  1.00  0.00    +0.000 C 
ATOM      2  C   UNL     1       1.052  -1.403   0.613  1.00  0.00    +0.000 A 
ATOM      3  C   UNL     1       2.441  -1.369   0.824  1.00  0.00    +0.000 A 
ATOM      4  C   UNL     1       3.213  -0.305   0.343  1.00  0.00    +0.000 A 
ATOM      5  C   UNL     1       2.611   0.737  -0.360  1.00  0.00    +0.000 A 
ATOM      6  C   UNL     1       3.434   1.856  -0.856  1.00  0.00    +0.000 C 
ATOM      7  O   UNL     1       2.931   2.777  -1.491  1.00  0.00    +0.000 OA
ATOM      8  C   UNL     1       4.881   1.846  -0.573  1.00  0.00    +0.000 C 
ATOM      9  C   UNL     1       5.453   0.845   0.099  1.00  0.00    +0.000 C 
ATOM     10  C   UNL     1       4.669  -0.303   0.593  1.00  0.00    +0.000 C 
ATOM     11  O   UNL     1       5.228  -1.218   1.185  1.00  0.00    +0.000 OA
ATOM     12  C   UNL     1       1.226   0.710  -0.586  1.00  0.00    +0.000 A 
ATOM     13  C   UNL     1       0.428  -0.350  -0.101  1.00  0.00    +0.000 A 
ENDROOT
BRANCH  13  14
ATOM     14  C   UNL     1      -1.036  -0.334  -0.329  1.00  0.00    +0.000 A 
ATOM     15  C   UNL     1      -1.928   0.340   0.553  1.00  0.00    +0.000 A 
ATOM     16  C   UNL     1      -1.442   1.031   1.788  1.00  0.00    +0.000 C 
ATOM     17  O   UNL     1      -0.287   0.994   2.192  1.00  0.00    +0.000 OA
ATOM     18  C   UNL     1      -2.418   1.791   2.595  1.00  0.00    +0.000 C 
ATOM     19  C   UNL     1      -3.718   1.814   2.308  1.00  0.00    +0.000 C 
ATOM     20  C   UNL     1      -4.248   1.079   1.155  1.00  0.00    +0.000 C 
ATOM     21  O   UNL     1      -5.455   1.073   0.931  1.00  0.00    +0.000 OA
ATOM     22  C   UNL     1      -3.305   0.362   0.273  1.00  0.00    +0.000 A 
ATOM     23  C   UNL     1      -3.801  -0.294  -0.860  1.00  0.00    +0.000 A 
ATOM     24  C   UNL     1      -2.943  -0.955  -1.727  1.00  0.00    +0.000 A 
ATOM     25  C   UNL     1      -1.564  -0.977  -1.483  1.00  0.00    +0.000 A 
ATOM     26  C   UNL     1      -0.673  -1.668  -2.486  1.00  0.00    +0.000 C 
BRANCH  23  27
ATOM     27  O   UNL     1      -5.129  -0.328  -1.196  1.00  0.00    +0.000 OA
ATOM     28  H   UNL     1      -5.638   0.174  -0.521  1.00  0.00    +0.000 HD
ENDBRANCH  23  27
ENDBRANCH  13  14
BRANCH  12  29
ATOM     29  O   UNL     1       0.589   1.715  -1.281  1.00  0.00    +0.000 OA
ATOM     30  H   UNL     1       1.254   2.392  -1.538  1.00  0.00    +0.000 HD
ENDBRANCH  12  29
TORSDOF 3
