REMARK  Name = SANCDB_00850_minRM1.pdb
AUTHORGENERATED BY OPEN BABEL 2.3.2
REMARK  17 active torsions:
REMARK  status: ('A' for Active; 'I' for Inactive)
REMARK    1  A    between atoms: C_3  and  O_44
REMARK    2  A    between atoms: C_4  and  O_43
REMARK    3  A    between atoms: C_6  and  C_7
REMARK    4  A    between atoms: C_8  and  O_20
REMARK    5  A    between atoms: C_12  and  O_19
REMARK    6  A    between atoms: C_14  and  O_18
REMARK    7  A    between atoms: O_20  and  C_21
REMARK    8  A    between atoms: C_22  and  O_42
REMARK    9  A    between atoms: C_23  and  O_41
REMARK   10  A    between atoms: C_24  and  O_40
REMARK   11  A    between atoms: C_25  and  C_27
REMARK   12  A    between atoms: C_27  and  O_28
REMARK   13  A    between atoms: O_28  and  C_29
REMARK   14  A    between atoms: C_29  and  C_31
REMARK   15  A    between atoms: C_33  and  O_39
REMARK   16  A    between atoms: C_34  and  O_38
REMARK   17  A    between atoms: C_35  and  O_37
REMARK                            x       y       z     vdW  Elec       q    Type
REMARK                         _______ _______ _______ _____ _____    ______ ____
ROOT
ATOM      1  C   UNL     1      -0.857  -0.431   1.492  1.00  0.00    +0.000 C 
ATOM      2  C   UNL     1      -0.592  -1.421   2.651  1.00  0.00    +0.000 C 
ATOM      3  C   UNL     1       0.236  -0.752   3.765  1.00  0.00    +0.000 C 
ATOM      4  C   UNL     1       1.443   0.004   3.194  1.00  0.00    +0.000 C 
ATOM      5  C   UNL     1       0.950   0.999   2.136  1.00  0.00    +0.000 C 
ATOM      6  O   UNL     1       0.328   0.258   1.081  1.00  0.00    +0.000 OA
ENDROOT
BRANCH   4   7
ATOM      7  O   UNL     1       2.338  -0.981   2.648  1.00  0.00    +0.000 OA
ATOM      8  H   UNL     1       2.578  -0.686   1.747  1.00  0.00    +0.000 HD
ENDBRANCH   4   7
BRANCH   3   9
ATOM      9  O   UNL     1       0.718  -1.732   4.698  1.00  0.00    +0.000 OA
ATOM     10  H   UNL     1       1.457  -2.184   4.242  1.00  0.00    +0.000 HD
ENDBRANCH   3   9
BRANCH   2  11
ATOM     11  O   UNL     1      -1.839  -1.866   3.213  1.00  0.00    +0.000 OA
ATOM     12  H   UNL     1      -2.322  -2.366   2.516  1.00  0.00    +0.000 HD
ENDBRANCH   2  11
BRANCH   1  13
ATOM     13  O   UNL     1      -1.317  -1.181   0.355  1.00  0.00    +0.000 OA
BRANCH  13  15
ATOM     14  C   UNL     1      -2.828   0.237  -0.887  1.00  0.00    +0.000 A 
ATOM     15  C   UNL     1      -2.577  -0.807  -0.073  1.00  0.00    +0.000 A 
ATOM     16  C   UNL     1      -3.710  -1.666   0.364  1.00  0.00    +0.000 A 
ATOM     17  O   UNL     1      -3.496  -2.576   1.158  1.00  0.00    +0.000 OA
ATOM     18  C   UNL     1      -5.046  -1.333  -0.178  1.00  0.00    +0.000 A 
ATOM     19  C   UNL     1      -6.196  -2.087   0.099  1.00  0.00    +0.000 A 
ATOM     20  C   UNL     1      -7.436  -1.714  -0.429  1.00  0.00    +0.000 A 
ATOM     21  C   UNL     1      -7.519  -0.584  -1.237  1.00  0.00    +0.000 A 
ATOM     22  C   UNL     1      -6.389   0.172  -1.523  1.00  0.00    +0.000 A 
ATOM     23  C   UNL     1      -5.154  -0.206  -0.994  1.00  0.00    +0.000 A 
ATOM     24  O   UNL     1      -4.091   0.595  -1.324  1.00  0.00    +0.000 OA
BRANCH  14  30
ATOM     25  C   UNL     1      -1.940   2.549  -1.139  1.00  0.00    +0.000 A 
ATOM     26  C   UNL     1      -0.910   3.442  -1.440  1.00  0.00    +0.000 A 
ATOM     27  C   UNL     1       0.293   2.951  -1.928  1.00  0.00    +0.000 A 
ATOM     28  C   UNL     1       0.456   1.593  -2.181  1.00  0.00    +0.000 A 
ATOM     29  C   UNL     1      -0.576   0.699  -1.904  1.00  0.00    +0.000 A 
ATOM     30  C   UNL     1      -1.772   1.167  -1.335  1.00  0.00    +0.000 A 
BRANCH  28  31
ATOM     31  O   UNL     1       1.654   1.155  -2.676  1.00  0.00    +0.000 OA
ATOM     32  H   UNL     1       1.579   0.198  -2.831  1.00  0.00    +0.000 HD
ENDBRANCH  28  31
BRANCH  27  33
ATOM     33  O   UNL     1       1.323   3.828  -2.105  1.00  0.00    +0.000 OA
ATOM     34  H   UNL     1       2.140   3.288  -2.034  1.00  0.00    +0.000 HD
ENDBRANCH  27  33
ENDBRANCH  14  30
BRANCH  19  35
ATOM     35  O   UNL     1      -6.125  -3.201   0.885  1.00  0.00    +0.000 OA
ATOM     36  H   UNL     1      -7.005  -3.588   1.022  1.00  0.00    +0.000 HD
ENDBRANCH  19  35
BRANCH  21  37
ATOM     37  O   UNL     1      -8.703  -0.178  -1.776  1.00  0.00    +0.000 OA
ATOM     38  H   UNL     1      -9.410  -0.787  -1.507  1.00  0.00    +0.000 HD
ENDBRANCH  21  37
ENDBRANCH  13  15
ENDBRANCH   1  13
BRANCH   5  39
ATOM     39  C   UNL     1       2.073   1.851   1.521  1.00  0.00    +0.000 C 
BRANCH  39  40
ATOM     40  O   UNL     1       3.056   1.012   0.882  1.00  0.00    +0.000 OA
BRANCH  40  41
ATOM     41  C   UNL     1       3.682   1.561  -0.189  1.00  0.00    +0.000 C 
ATOM     42  O   UNL     1       3.503   2.683  -0.640  1.00  0.00    +0.000 OA
BRANCH  41  43
ATOM     43  C   UNL     1       4.618   0.589  -0.808  1.00  0.00    +0.000 A 
ATOM     44  C   UNL     1       5.077  -0.547  -0.124  1.00  0.00    +0.000 A 
ATOM     45  C   UNL     1       5.948  -1.417  -0.766  1.00  0.00    +0.000 A 
ATOM     46  C   UNL     1       6.368  -1.169  -2.067  1.00  0.00    +0.000 A 
ATOM     47  C   UNL     1       5.923  -0.041  -2.744  1.00  0.00    +0.000 A 
ATOM     48  C   UNL     1       5.051   0.846  -2.123  1.00  0.00    +0.000 A 
BRANCH  47  49
ATOM     49  O   UNL     1       6.370   0.155  -4.020  1.00  0.00    +0.000 OA
ATOM     50  H   UNL     1       5.998   0.991  -4.354  1.00  0.00    +0.000 HD
ENDBRANCH  47  49
BRANCH  46  51
ATOM     51  O   UNL     1       7.226  -2.049  -2.667  1.00  0.00    +0.000 OA
ATOM     52  H   UNL     1       7.383  -1.668  -3.556  1.00  0.00    +0.000 HD
ENDBRANCH  46  51
BRANCH  45  53
ATOM     53  O   UNL     1       6.393  -2.524  -0.104  1.00  0.00    +0.000 OA
ATOM     54  H   UNL     1       6.987  -2.975  -0.738  1.00  0.00    +0.000 HD
ENDBRANCH  45  53
ENDBRANCH  41  43
ENDBRANCH  40  41
ENDBRANCH  39  40
ENDBRANCH   5  39
TORSDOF 17
