REMARK  Name = 
REMARK  16 active torsions:
REMARK  status: ('A' for Active; 'I' for Inactive)
REMARK    1  A    between atoms: C_1  and  C_2
REMARK    2  A    between atoms: C_2  and  C_14
REMARK    3  A    between atoms: C_3  and  C_4
REMARK    4  A    between atoms: C_4  and  C_5
REMARK    5  A    between atoms: C_7  and  O_8
REMARK    6  A    between atoms: C_9  and  C_10
REMARK    7  A    between atoms: C_12  and  O_13
REMARK    8  A    between atoms: C_14  and  C_15
REMARK    9  A    between atoms: C_15  and  C_16
REMARK   10  A    between atoms: C_16  and  C_17
REMARK   11  A    between atoms: C_17  and  C_18
REMARK   12  A    between atoms: C_19  and  C_20
REMARK   13  A    between atoms: C_20  and  C_22
REMARK   14  A    between atoms: C_22  and  C_23
REMARK   15  A    between atoms: C_23  and  C_24
REMARK   16  A    between atoms: C_23  and  C_25
REMARK                            x       y       z     vdW  Elec       q    Type
REMARK                         _______ _______ _______ _____ _____    ______ ____
ROOT
ATOM      1  C   UNL     1       1.301  -3.386  -1.833  1.00  0.00    +0.000 C 
ATOM      2  C   UNL     1       0.614  -2.870  -0.593  1.00  0.00    +0.000 C 
ATOM      3  C   UNL     1       1.223  -2.717   0.601  1.00  0.00    +0.000 C 
ENDROOT
BRANCH   3   4
ATOM      4  C   UNL     1       2.665  -2.959   0.957  1.00  0.00    +0.000 C 
BRANCH   4   5
ATOM      5  C   UNL     1       3.402  -1.657   1.173  1.00  0.00    +0.000 A 
ATOM      6  C   UNL     1       4.055  -1.068   0.074  1.00  0.00    +0.000 A 
ATOM      7  C   UNL     1       4.722   0.150   0.210  1.00  0.00    +0.000 A 
ATOM      8  C   UNL     1       4.760   0.818   1.434  1.00  0.00    +0.000 A 
ATOM      9  C   UNL     1       5.475   2.129   1.580  1.00  0.00    +0.000 C 
ATOM     10  C   UNL     1       4.102   0.242   2.527  1.00  0.00    +0.000 A 
ATOM     11  C   UNL     1       3.428  -0.974   2.395  1.00  0.00    +0.000 A 
BRANCH   7  12
ATOM     12  O   UNL     1       5.351   0.714  -0.864  1.00  0.00    +0.000 OA
ATOM     13  H   UNL     1       5.261   0.121  -1.627  1.00  0.00    +0.000 HD
ENDBRANCH   7  12
BRANCH  11  14
ATOM     14  O   UNL     1       2.804  -1.424   3.525  1.00  0.00    +0.000 OA
ATOM     15  H   UNL     1       2.306  -2.230   3.329  1.00  0.00    +0.000 HD
ENDBRANCH  11  14
ENDBRANCH   4   5
ENDBRANCH   3   4
BRANCH   2  16
ATOM     16  C   UNL     1      -0.849  -2.524  -0.836  1.00  0.00    +0.000 C 
BRANCH  16  17
ATOM     17  C   UNL     1      -1.570  -1.579   0.140  1.00  0.00    +0.000 C 
BRANCH  17  18
ATOM     18  C   UNL     1      -0.998  -0.155   0.241  1.00  0.00    +0.000 C 
BRANCH  18  19
ATOM     19  C   UNL     1      -0.884   0.600  -1.067  1.00  0.00    +0.000 C 
ATOM     20  C   UNL     1       0.532   0.873  -1.512  1.00  0.00    +0.000 C 
ATOM     21  C   UNL     1      -1.913   1.007  -1.835  1.00  0.00    +0.000 C 
BRANCH  21  22
ATOM     22  C   UNL     1      -3.363   0.838  -1.551  1.00  0.00    +0.000 C 
ATOM     23  O   UNL     1      -4.076   0.346  -2.424  1.00  0.00    +0.000 OA
BRANCH  22  24
ATOM     24  C   UNL     1      -3.910   1.327  -0.222  1.00  0.00    +0.000 C 
BRANCH  24  25
ATOM     25  C   UNL     1      -5.292   1.986  -0.361  1.00  0.00    +0.000 C 
ATOM     26  C   UNL     1      -5.206   3.309  -1.124  1.00  0.00    +0.000 C 
ATOM     27  C   UNL     1      -5.901   2.222   1.023  1.00  0.00    +0.000 C 
ENDBRANCH  24  25
ENDBRANCH  22  24
ENDBRANCH  21  22
ENDBRANCH  18  19
ENDBRANCH  17  18
ENDBRANCH  16  17
ENDBRANCH   2  16
TORSDOF 11
