REMARK  Name = C[C@@H]3CC(=O)[C@H](OC(=O)c1ccoc1)[C@@]4(C)[C@@H](OC(=O)c2ccoc2)C[C@H]5C[C@]...
REMARK  10 active torsions:
REMARK  status: ('A' for Active; 'I' for Inactive)
REMARK    1  A    between atoms: C_1  and  C_27
REMARK    2  A    between atoms: C_2  and  C_31
REMARK    3  A    between atoms: C_3  and  C_31
REMARK    4  A    between atoms: C_4  and  C_32
REMARK    5  A    between atoms: O_17  and  C_23
REMARK    6  A    between atoms: O_17  and  C_29
REMARK    7  A    between atoms: O_18  and  C_24
REMARK    8  A    between atoms: O_18  and  C_30
REMARK    9  A    between atoms: C_23  and  C_25
REMARK   10  A    between atoms: C_24  and  C_26
REMARK                            x       y       z     vdW  Elec       q    Type
REMARK                         _______ _______ _______ _____ _____    ______ ____
ROOT
ATOM      1  C   UNL     1      -2.417  -3.911   0.534  1.00  0.00    +0.000 C 
ATOM      2  C   UNL     1       1.634  -3.739   1.598  1.00  0.00    +0.000 C 
ATOM      3  C   UNL     1       2.777  -1.587   1.261  1.00  0.00    +0.000 C 
ATOM      4  C   UNL     1      -1.632  -0.902  -2.059  1.00  0.00    +0.000 C 
ATOM      5  O   UNL     1      -3.797   0.737   0.612  1.00  0.00    +0.000 OA
ATOM      6  C   UNL     1      -3.168  -1.551   0.678  1.00  0.00    +0.000 C 
ATOM      7  C   UNL     1       1.616  -1.355  -1.576  1.00  0.00    +0.000 C 
ATOM      8  C   UNL     1       0.034  -3.105  -0.820  1.00  0.00    +0.000 C 
ATOM      9  O   UNL     1       0.329  -1.771   1.121  1.00  0.00    +0.000 OA
ATOM     10  C   UNL     1      -2.877  -0.080   0.517  1.00  0.00    +0.000 C 
ATOM     11  C   UNL     1      -1.950  -2.477   0.821  1.00  0.00    +0.000 C 
ATOM     12  C   UNL     1       1.475  -2.636  -0.718  1.00  0.00    +0.000 C 
ATOM     13  C   UNL     1       0.623  -0.209  -1.244  1.00  0.00    +0.000 C 
ATOM     14  C   UNL     1      -1.454   0.338   0.170  1.00  0.00    +0.000 C 
ATOM     15  C   UNL     1       1.579  -2.418   0.799  1.00  0.00    +0.000 C 
ATOM     16  C   UNL     1      -0.789  -0.711  -0.762  1.00  0.00    +0.000 C 
ATOM     17  C   UNL     1      -0.654  -2.045   0.054  1.00  0.00    +0.000 C 
ENDROOT
BRANCH  13  18
ATOM     18  O   UNL     1       1.198   0.673  -0.258  1.00  0.00    +0.000 OA
BRANCH  18  20
ATOM     19  O   UNL     1       2.361   1.791  -1.887  1.00  0.00    +0.000 OA
ATOM     20  C   UNL     1       2.019   1.662  -0.718  1.00  0.00    +0.000 C 
BRANCH  20  25
ATOM     21  C   UNL     1       2.744   3.628   2.288  1.00  0.00    +0.000 A 
ATOM     22  C   UNL     1       2.088   2.560   1.723  1.00  0.00    +0.000 A 
ATOM     23  C   UNL     1       3.282   3.634   0.175  1.00  0.00    +0.000 A 
ATOM     24  O   UNL     1       3.476   4.283   1.351  1.00  0.00    +0.000 OA
ATOM     25  C   UNL     1       2.435   2.557   0.341  1.00  0.00    +0.000 A 
ENDBRANCH  20  25
ENDBRANCH  18  20
ENDBRANCH  13  18
BRANCH  14  26
ATOM     26  O   UNL     1      -1.481   1.618  -0.483  1.00  0.00    +0.000 OA
BRANCH  26  28
ATOM     27  O   UNL     1      -1.398   2.639   1.571  1.00  0.00    +0.000 OA
ATOM     28  C   UNL     1      -1.466   2.700   0.350  1.00  0.00    +0.000 C 
BRANCH  28  33
ATOM     29  C   UNL     1      -1.499   5.547  -1.959  1.00  0.00    +0.000 A 
ATOM     30  C   UNL     1      -1.520   4.182  -1.790  1.00  0.00    +0.000 A 
ATOM     31  C   UNL     1      -1.434   5.200   0.192  1.00  0.00    +0.000 A 
ATOM     32  O   UNL     1      -1.447   6.172  -0.756  1.00  0.00    +0.000 OA
ATOM     33  C   UNL     1      -1.477   3.947  -0.385  1.00  0.00    +0.000 A 
ENDBRANCH  28  33
ENDBRANCH  26  28
ENDBRANCH  14  26
TORSDOF 6
