REMARK  Name = /srv/my_project/app/compsite/backup/Dave/CORINA_stuff/newPDBs/SANC00413.pdb
AUTHORGENERATED BY OPEN BABEL 2.3.2
REMARK  4 active torsions:
REMARK  status: ('A' for Active; 'I' for Inactive)
REMARK    1  A    between atoms: C_6  and  O_7
REMARK    2  A    between atoms: C_10  and  C_11
REMARK    3  A    between atoms: C_11  and  C_13
REMARK    4  A    between atoms: C_15  and  C_18
REMARK                            x       y       z     vdW  Elec       q    Type
REMARK                         _______ _______ _______ _____ _____    ______ ____
ROOT
ATOM      1  C   UNL     1      -0.540  -1.440  -0.851  1.00  0.00    +0.000 A 
ATOM      2  N   UNL     1       0.585  -1.181  -1.498  1.00  0.00    +0.000 NA
ATOM      3  C   UNL     1       1.469  -0.685  -0.567  1.00  0.00    +0.000 A 
ATOM      4  C   UNL     1       0.887  -0.667   0.677  1.00  0.00    +0.000 A 
ATOM      5  N   UNL     1      -0.378  -1.152   0.487  1.00  0.00    +0.000 N 
ATOM      6  H   UNL     1      -1.081  -1.284   1.202  1.00  0.00    +0.000 HD
ENDROOT
BRANCH   3   7
ATOM      7  C   UNL     1       2.816  -0.303  -0.987  1.00  0.00    +0.000 A 
ATOM      8  C   UNL     1       3.387  -0.649  -2.194  1.00  0.00    +0.000 A 
ATOM      9  N   UNL     1       4.649  -0.133  -2.233  1.00  0.00    +0.000 N 
ATOM     10  C   UNL     1       4.914   0.562  -1.074  1.00  0.00    +0.000 A 
ATOM     11  C   UNL     1       3.772   0.481  -0.267  1.00  0.00    +0.000 A 
ATOM     12  C   UNL     1       3.800   1.147   0.979  1.00  0.00    +0.000 A 
ATOM     13  C   UNL     1       4.949   1.844   1.377  1.00  0.00    +0.000 A 
ATOM     14  C   UNL     1       6.064   1.889   0.549  1.00  0.00    +0.000 A 
ATOM     15  C   UNL     1       6.073   1.253  -0.694  1.00  0.00    +0.000 A 
ATOM     16 BR   UNL     1       7.602   2.839   1.111  1.00  0.00    +0.000 Br
ATOM     17  H   UNL     1       5.296  -0.237  -3.003  1.00  0.00    +0.000 HD
ENDBRANCH   3   7
BRANCH   1  18
ATOM     18  C   UNL     1      -1.730  -1.998  -1.481  1.00  0.00    +0.000 C 
ATOM     19  O   UNL     1      -1.721  -2.679  -2.503  1.00  0.00    +0.000 OA
BRANCH  18  28
ATOM     20  C   UNL     1      -3.737   1.771   0.593  1.00  0.00    +0.000 A 
ATOM     21  C   UNL     1      -2.992   0.802  -0.092  1.00  0.00    +0.000 A 
ATOM     22  C   UNL     1      -3.471  -0.526  -0.173  1.00  0.00    +0.000 A 
ATOM     23  C   UNL     1      -4.706  -0.817   0.412  1.00  0.00    +0.000 A 
ATOM     24  C   UNL     1      -5.462   0.137   1.104  1.00  0.00    +0.000 A 
ATOM     25  C   UNL     1      -4.947   1.430   1.181  1.00  0.00    +0.000 A 
ATOM     26  N   UNL     1      -4.986  -2.136   0.146  1.00  0.00    +0.000 N 
ATOM     27  C   UNL     1      -3.968  -2.697  -0.573  1.00  0.00    +0.000 A 
ATOM     28  C   UNL     1      -2.982  -1.742  -0.763  1.00  0.00    +0.000 A 
ATOM     29  H   UNL     1      -5.836  -2.610   0.424  1.00  0.00    +0.000 HD
BRANCH  25  30
ATOM     30  O   UNL     1      -5.691   2.357   1.854  1.00  0.00    +0.000 OA
ATOM     31  H   UNL     1      -5.251   3.220   1.785  1.00  0.00    +0.000 HD
ENDBRANCH  25  30
ENDBRANCH  18  28
ENDBRANCH   1  18
TORSDOF 4
