REMARK  Name = SANCDB_01075_minRM1.pdb
AUTHORGENERATED BY OPEN BABEL 2.3.2
REMARK  8 active torsions:
REMARK  status: ('A' for Active; 'I' for Inactive)
REMARK    1  A    between atoms: C_1  and  C_2
REMARK    2  A    between atoms: C_3  and  C_4
REMARK    3  A    between atoms: C_3  and  C_5
REMARK    4  A    between atoms: C_5  and  O_7
REMARK    5  A    between atoms: O_7  and  C_8
REMARK    6  A    between atoms: C_10  and  C_27
REMARK    7  A    between atoms: C_16  and  C_25
REMARK    8  A    between atoms: C_25  and  O_26
REMARK                            x       y       z     vdW  Elec       q    Type
REMARK                         _______ _______ _______ _____ _____    ______ ____
ROOT
ATOM      1  C   UNL     1       0.257  -0.342   0.246  1.00  0.00    +0.000 C 
ATOM      2  C   UNL     1      -0.225  -1.494   1.166  1.00  0.00    +0.000 C 
ATOM      3  C   UNL     1      -1.753  -1.698   1.203  1.00  0.00    +0.000 C 
ATOM      4  C   UNL     1      -2.294  -2.182  -0.126  1.00  0.00    +0.000 C 
ATOM      5  O   UNL     1      -2.155  -3.294  -0.609  1.00  0.00    +0.000 OA
ATOM      6  C   UNL     1      -2.952  -1.086  -0.827  1.00  0.00    +0.000 C 
ATOM      7  C   UNL     1      -2.880  -0.114   0.080  1.00  0.00    +0.000 C 
ATOM      8  O   UNL     1      -2.408  -0.425   1.347  1.00  0.00    +0.000 OA
ATOM      9  C   UNL     1      -3.121   1.286  -0.155  1.00  0.00    +0.000 C 
ATOM     10  C   UNL     1      -2.123   2.191  -0.271  1.00  0.00    +0.000 C 
ATOM     11  C   UNL     1      -0.612   2.057  -0.160  1.00  0.00    +0.000 C 
ATOM     12  C   UNL     1      -0.006   1.071   0.856  1.00  0.00    +0.000 C 
ATOM     13  C   UNL     1       1.155   1.852   1.378  1.00  0.00    +0.000 C 
ATOM     14  C   UNL     1       2.179   1.454   2.145  1.00  0.00    +0.000 C 
ATOM     15  C   UNL     1       0.989   3.265   0.985  1.00  0.00    +0.000 C 
ATOM     16  O   UNL     1       1.707   4.192   1.308  1.00  0.00    +0.000 OA
ATOM     17  O   UNL     1      -0.139   3.361   0.239  1.00  0.00    +0.000 OA
ATOM     18  C   UNL     1      -2.189  -2.618   2.333  1.00  0.00    +0.000 C 
ENDROOT
BRANCH   1  19
ATOM     19  O   UNL     1       1.666  -0.586   0.012  1.00  0.00    +0.000 OA
BRANCH  19  20
ATOM     20  C   UNL     1       2.152  -0.193  -1.193  1.00  0.00    +0.000 C 
ATOM     21  O   UNL     1       1.522   0.403  -2.051  1.00  0.00    +0.000 OA
BRANCH  20  24
ATOM     22  C   UNL     1       3.260  -1.524  -3.682  1.00  0.00    +0.000 C 
ATOM     23  C   UNL     1       4.035  -1.169  -2.452  1.00  0.00    +0.000 C 
ATOM     24  C   UNL     1       3.572  -0.609  -1.317  1.00  0.00    +0.000 C 
ATOM     25  C   UNL     1       4.460  -0.325  -0.143  1.00  0.00    +0.000 C 
ENDBRANCH  20  24
ENDBRANCH  19  20
ENDBRANCH   1  19
BRANCH   9  26
ATOM     26  C   UNL     1      -4.570   1.680  -0.332  1.00  0.00    +0.000 C 
BRANCH  26  27
ATOM     27  O   UNL     1      -5.302   1.404   0.854  1.00  0.00    +0.000 OA
ATOM     28  H   UNL     1      -4.763   1.715   1.603  1.00  0.00    +0.000 HD
ENDBRANCH  26  27
ENDBRANCH   9  26
TORSDOF 5
