REMARK  Name = SANCDB_00857_minRM1.pdb
AUTHORGENERATED BY OPEN BABEL 2.3.2
REMARK  9 active torsions:
REMARK  status: ('A' for Active; 'I' for Inactive)
REMARK    1  A    between atoms: C_3  and  O_30
REMARK    2  A    between atoms: C_6  and  C_7
REMARK    3  A    between atoms: C_16  and  O_18
REMARK    4  A    between atoms: O_18  and  C_19
REMARK    5  A    between atoms: C_20  and  O_29
REMARK    6  A    between atoms: C_21  and  O_28
REMARK    7  A    between atoms: C_22  and  O_27
REMARK    8  A    between atoms: C_23  and  C_25
REMARK    9  A    between atoms: C_25  and  O_26
REMARK                            x       y       z     vdW  Elec       q    Type
REMARK                         _______ _______ _______ _____ _____    ______ ____
ROOT
ATOM      1  C   UNL     1       3.712   0.170  -0.465  1.00  0.00    +0.000 A 
ATOM      2  C   UNL     1       2.984  -0.376  -1.453  1.00  0.00    +0.000 A 
ATOM      3  O   UNL     1       1.651  -0.708  -1.411  1.00  0.00    +0.000 OA
ATOM      4  C   UNL     1       0.967  -0.456  -0.249  1.00  0.00    +0.000 A 
ATOM      5  C   UNL     1       1.569   0.118   0.865  1.00  0.00    +0.000 A 
ATOM      6  C   UNL     1       3.000   0.470   0.810  1.00  0.00    +0.000 A 
ATOM      7  O   UNL     1       3.551   0.980   1.778  1.00  0.00    +0.000 OA
ATOM      8  C   UNL     1       0.819   0.356   2.018  1.00  0.00    +0.000 A 
ATOM      9  C   UNL     1      -0.535   0.014   2.043  1.00  0.00    +0.000 A 
ATOM     10  C   UNL     1      -1.145  -0.568   0.926  1.00  0.00    +0.000 A 
ATOM     11  C   UNL     1      -0.389  -0.799  -0.224  1.00  0.00    +0.000 A 
ENDROOT
BRANCH   1  17
ATOM     12  C   UNL     1       5.651   1.742  -0.325  1.00  0.00    +0.000 A 
ATOM     13  C   UNL     1       7.002   2.046  -0.517  1.00  0.00    +0.000 A 
ATOM     14  C   UNL     1       7.850   1.084  -1.053  1.00  0.00    +0.000 A 
ATOM     15  C   UNL     1       7.370  -0.173  -1.395  1.00  0.00    +0.000 A 
ATOM     16  C   UNL     1       6.020  -0.477  -1.200  1.00  0.00    +0.000 A 
ATOM     17  C   UNL     1       5.140   0.480  -0.667  1.00  0.00    +0.000 A 
BRANCH  14  18
ATOM     18  O   UNL     1       9.173   1.337  -1.256  1.00  0.00    +0.000 OA
ATOM     19  H   UNL     1       9.368   2.235  -0.942  1.00  0.00    +0.000 HD
ENDBRANCH  14  18
ENDBRANCH   1  17
BRANCH  10  20
ATOM     20  O   UNL     1      -2.474  -0.846   1.089  1.00  0.00    +0.000 OA
BRANCH  20  21
ATOM     21  C   UNL     1      -3.154  -1.558   0.045  1.00  0.00    +0.000 C 
ATOM     22  C   UNL     1      -4.507  -2.037   0.617  1.00  0.00    +0.000 C 
ATOM     23  C   UNL     1      -5.408  -0.835   0.955  1.00  0.00    +0.000 C 
ATOM     24  C   UNL     1      -5.012   0.441   0.191  1.00  0.00    +0.000 C 
ATOM     25  C   UNL     1      -4.484   0.065  -1.195  1.00  0.00    +0.000 C 
ATOM     26  O   UNL     1      -3.304  -0.766  -1.140  1.00  0.00    +0.000 OA
BRANCH  24  27
ATOM     27  O   UNL     1      -6.135   1.322   0.117  1.00  0.00    +0.000 OA
ATOM     28  H   UNL     1      -6.519   1.358   1.014  1.00  0.00    +0.000 HD
ENDBRANCH  24  27
BRANCH  23  29
ATOM     29  O   UNL     1      -5.383  -0.538   2.363  1.00  0.00    +0.000 OA
ATOM     30  H   UNL     1      -4.457  -0.370   2.619  1.00  0.00    +0.000 HD
ENDBRANCH  23  29
BRANCH  22  31
ATOM     31  O   UNL     1      -5.187  -2.877  -0.328  1.00  0.00    +0.000 OA
ATOM     32  H   UNL     1      -4.646  -3.673  -0.473  1.00  0.00    +0.000 HD
ENDBRANCH  22  31
BRANCH  25  33
ATOM     33  C   UNL     1      -4.119   1.305  -2.020  1.00  0.00    +0.000 C 
BRANCH  33  34
ATOM     34  O   UNL     1      -3.610   0.905  -3.296  1.00  0.00    +0.000 OA
ATOM     35  H   UNL     1      -3.003   0.163  -3.113  1.00  0.00    +0.000 HD
ENDBRANCH  33  34
ENDBRANCH  25  33
ENDBRANCH  20  21
ENDBRANCH  10  20
TORSDOF 9
