REMARK  Name = /srv/my_project/app/compsite/backup/Dave/CORINA_stuff/newPDBs/SANC00474.pdb
AUTHORGENERATED BY OPEN BABEL 2.3.2
REMARK  8 active torsions:
REMARK  status: ('A' for Active; 'I' for Inactive)
REMARK    1  A    between atoms: C_1  and  O_2
REMARK    2  A    between atoms: O_2  and  C_3
REMARK    3  A    between atoms: C_4  and  O_5
REMARK    4  A    between atoms: C_7  and  C_8
REMARK    5  A    between atoms: C_13  and  O_14
REMARK    6  A    between atoms: C_16  and  O_17
REMARK    7  A    between atoms: C_18  and  O_19
REMARK    8  A    between atoms: O_19  and  C_20
REMARK                            x       y       z     vdW  Elec       q    Type
REMARK                         _______ _______ _______ _____ _____    ______ ____
ROOT
ATOM      1  C   UNL     1      -1.891  -1.442  -1.209  1.00  0.00    +0.000 A 
ATOM      2  C   UNL     1      -3.087  -1.067  -1.829  1.00  0.00    +0.000 A 
ATOM      3  C   UNL     1      -3.526   0.250  -1.836  1.00  0.00    +0.000 A 
ATOM      4  C   UNL     1      -2.773   1.245  -1.198  1.00  0.00    +0.000 A 
ATOM      5  C   UNL     1      -3.286   2.659  -1.240  1.00  0.00    +0.000 C 
ATOM      6  C   UNL     1      -1.580   0.873  -0.535  1.00  0.00    +0.000 A 
ATOM      7  C   UNL     1      -0.750   1.852   0.211  1.00  0.00    +0.000 A 
ATOM      8  O   UNL     1      -1.192   2.949   0.522  1.00  0.00    +0.000 OA
ATOM      9  C   UNL     1       0.613   1.432   0.594  1.00  0.00    +0.000 A 
ATOM     10  C   UNL     1       1.605   2.327   1.018  1.00  0.00    +0.000 A 
ATOM     11  C   UNL     1       2.867   1.862   1.394  1.00  0.00    +0.000 A 
ATOM     12  C   UNL     1       3.141   0.495   1.350  1.00  0.00    +0.000 A 
ATOM     13  C   UNL     1       2.156  -0.414   0.943  1.00  0.00    +0.000 A 
ATOM     14  C   UNL     1       0.899   0.070   0.540  1.00  0.00    +0.000 A 
ATOM     15  O   UNL     1      -0.018  -0.868   0.132  1.00  0.00    +0.000 OA
ATOM     16  C   UNL     1      -1.140  -0.462  -0.543  1.00  0.00    +0.000 A 
ENDROOT
BRANCH   1  18
ATOM     17  C   UNL     1      -0.250  -3.172  -1.296  1.00  0.00    +0.000 C 
ATOM     18  O   UNL     1      -1.621  -2.786  -1.306  1.00  0.00    +0.000 OA
ENDBRANCH   1  18
BRANCH   2  19
ATOM     19  O   UNL     1      -3.860  -2.003  -2.462  1.00  0.00    +0.000 OA
ATOM     20  H   UNL     1      -3.402  -2.854  -2.315  1.00  0.00    +0.000 HD
ENDBRANCH   2  19
BRANCH  10  21
ATOM     21  O   UNL     1       1.372   3.673   1.034  1.00  0.00    +0.000 OA
ATOM     22  H   UNL     1       2.076   4.142   1.508  1.00  0.00    +0.000 HD
ENDBRANCH  10  21
BRANCH  12  23
ATOM     23  O   UNL     1       4.394   0.058   1.678  1.00  0.00    +0.000 OA
ATOM     24  H   UNL     1       4.980   0.818   1.829  1.00  0.00    +0.000 HD
ENDBRANCH  12  23
BRANCH  13  25
ATOM     25  O   UNL     1       2.344  -1.770   0.831  1.00  0.00    +0.000 OA
ATOM     26  C   UNL     1       3.050  -2.373   1.912  1.00  0.00    +0.000 C 
ENDBRANCH  13  25
TORSDOF 5
