REMARK  Name = SANCDB_00957_minRM1.pdb
AUTHORGENERATED BY OPEN BABEL 2.3.2
REMARK  7 active torsions:
REMARK  status: ('A' for Active; 'I' for Inactive)
REMARK    1  A    between atoms: C_1  and  C_2
REMARK    2  A    between atoms: C_2  and  C_26
REMARK    3  A    between atoms: C_9  and  O_25
REMARK    4  A    between atoms: C_13  and  C_17
REMARK    5  A    between atoms: C_13  and  O_18
REMARK    6  A    between atoms: C_22  and  O_23
REMARK    7  A    between atoms: O_23  and  C_24
REMARK                            x       y       z     vdW  Elec       q    Type
REMARK                         _______ _______ _______ _____ _____    ______ ____
ROOT
ATOM      1  C   UNL     1      -3.595  -2.150   1.806  1.00  0.00    +0.000 C 
ATOM      2  C   UNL     1      -3.541  -1.823   0.310  1.00  0.00    +0.000 C 
ATOM      3  C   UNL     1      -4.502  -0.712  -0.012  1.00  0.00    +0.000 C 
ATOM      4  C   UNL     1      -4.098   0.529  -0.293  1.00  0.00    +0.000 C 
ATOM      5  C   UNL     1      -2.667   0.825  -0.268  1.00  0.00    +0.000 A 
ATOM      6  C   UNL     1      -1.750  -0.231  -0.130  1.00  0.00    +0.000 A 
ATOM      7  O   UNL     1      -2.165  -1.542  -0.024  1.00  0.00    +0.000 OA
ATOM      8  C   UNL     1      -0.337  -0.015  -0.131  1.00  0.00    +0.000 A 
ATOM      9  C   UNL     1       0.664  -1.032  -0.015  1.00  0.00    +0.000 A 
ATOM     10  C   UNL     1       2.043  -0.738  -0.011  1.00  0.00    +0.000 A 
ATOM     11  C   UNL     1       2.450   0.599  -0.119  1.00  0.00    +0.000 A 
ATOM     12  C   UNL     1       3.901   1.002  -0.141  1.00  0.00    +0.000 C 
ATOM     13  C   UNL     1       4.821  -0.010   0.545  1.00  0.00    +0.000 C 
ATOM     14  C   UNL     1       4.545  -1.405  -0.001  1.00  0.00    +0.000 C 
ATOM     15  C   UNL     1       3.092  -1.812   0.104  1.00  0.00    +0.000 C 
ATOM     16  O   UNL     1       2.820  -3.003   0.227  1.00  0.00    +0.000 OA
ATOM     17  C   UNL     1       4.693   0.041   2.072  1.00  0.00    +0.000 C 
ATOM     18  C   UNL     1       1.481   1.605  -0.254  1.00  0.00    +0.000 A 
ATOM     19  C   UNL     1       0.107   1.319  -0.257  1.00  0.00    +0.000 A 
ATOM     20  C   UNL     1      -0.815   2.371  -0.388  1.00  0.00    +0.000 A 
ATOM     21  C   UNL     1      -2.193   2.140  -0.399  1.00  0.00    +0.000 A 
ATOM     22  C   UNL     1      -3.915  -3.068  -0.503  1.00  0.00    +0.000 C 
ENDROOT
BRANCH  13  23
ATOM     23  O   UNL     1       6.180   0.346   0.247  1.00  0.00    +0.000 OA
ATOM     24  H   UNL     1       6.344   0.197  -0.701  1.00  0.00    +0.000 HD
ENDBRANCH  13  23
BRANCH  21  25
ATOM     25  O   UNL     1      -3.139   3.126  -0.530  1.00  0.00    +0.000 OA
ATOM     26  C   UNL     1      -2.692   4.469  -0.661  1.00  0.00    +0.000 C 
ENDBRANCH  21  25
BRANCH   9  27
ATOM     27  O   UNL     1       0.281  -2.347   0.092  1.00  0.00    +0.000 OA
ATOM     28  H   UNL     1      -0.691  -2.392   0.033  1.00  0.00    +0.000 HD
ENDBRANCH   9  27
TORSDOF 3
