REMARK  Name = /srv/my_project/app/compsite/backup/Dave/CORINA_stuff/newPDBs/SANC00130.pdb
AUTHORGENERATED BY OPEN BABEL 2.3.2
REMARK  3 active torsions:
REMARK  status: ('A' for Active; 'I' for Inactive)
REMARK    1  A    between atoms: C_1  and  N_2
REMARK    2  A    between atoms: CA_9  and  C_10
REMARK    3  A    between atoms: C_10  and  OXT_12
REMARK                            x       y       z     vdW  Elec       q    Type
REMARK                         _______ _______ _______ _____ _____    ______ ____
ROOT
ATOM      1  C   UNL     1      -2.472  -1.974  -0.259  1.00  0.00    +0.000 C 
ATOM      2  N   UNL     1      -1.593  -0.831  -0.118  1.00  0.00    +0.000 N 
ATOM      3  C   UNL     1      -1.999   0.418  -0.782  1.00  0.00    +0.000 C 
ATOM      4  C   UNL     1      -1.377   1.673  -0.149  1.00  0.00    +0.000 C 
ATOM      5  C   UNL     1       0.079   1.447   0.031  1.00  0.00    +0.000 A 
ATOM      6  C   UNL     1       1.125   2.332   0.123  1.00  0.00    +0.000 A 
ATOM      7  N   UNL     1       2.264   1.594   0.311  1.00  0.00    +0.000 N 
ATOM      8  H   UNL     1       3.199   1.970   0.420  1.00  0.00    +0.000 HD
ATOM      9  CA  UNL     1       1.983   0.242   0.267  1.00  0.00    +0.000 A 
ATOM     10  C   UNL     1       0.603   0.125   0.168  1.00  0.00    +0.000 A 
ATOM     11  C   UNL     1      -0.245  -1.071   0.212  1.00  0.00    +0.000 C 
ATOM     12  O   UNL     1       0.167  -2.172   0.563  1.00  0.00    +0.000 OA
ENDROOT
BRANCH   9  13
ATOM     13  C   UNL     1       3.033  -0.733   0.338  1.00  0.00    +0.000 C 
ATOM     14  O   UNL     1       4.137  -0.572   0.837  1.00  0.00    +0.000 OA
BRANCH  13  15
ATOM     15  OXT UNL     1       2.729  -1.860  -0.325  1.00  0.00    +0.000 OA
ATOM     16  HXT UNL     1       3.492  -2.449  -0.170  1.00  0.00    +0.000 HD
ENDBRANCH  13  15
ENDBRANCH   9  13
TORSDOF 2
