REMARK  Name = SANCDB_00755_minRM1.pdb
AUTHORGENERATED BY OPEN BABEL 2.3.2
REMARK  3 active torsions:
REMARK  status: ('A' for Active; 'I' for Inactive)
REMARK    1  A    between atoms: C_1  and  O_2
REMARK    2  A    between atoms: O_2  and  C_3
REMARK    3  A    between atoms: C_13  and  O_14
REMARK                            x       y       z     vdW  Elec       q    Type
REMARK                         _______ _______ _______ _____ _____    ______ ____
ROOT
ATOM      1  C   UNL     1      -1.508   0.249   0.116  1.00  0.00    +0.000 A 
ATOM      2  C   UNL     1      -0.534  -0.757   0.063  1.00  0.00    +0.000 A 
ATOM      3  C   UNL     1       0.820  -0.422  -0.055  1.00  0.00    +0.000 A 
ATOM      4  C   UNL     1       1.861  -1.435  -0.114  1.00  0.00    +0.000 A 
ATOM      5  C   UNL     1       3.140  -1.061  -0.227  1.00  0.00    +0.000 A 
ATOM      6  C   UNL     1       3.548   0.353  -0.296  1.00  0.00    +0.000 A 
ATOM      7  O   UNL     1       4.730   0.659  -0.399  1.00  0.00    +0.000 OA
ATOM      8  O   UNL     1       2.536   1.302  -0.238  1.00  0.00    +0.000 OA
ATOM      9  C   UNL     1       1.185   0.921  -0.119  1.00  0.00    +0.000 A 
ATOM     10  C   UNL     1       0.239   1.940  -0.069  1.00  0.00    +0.000 A 
ATOM     11  C   UNL     1      -1.105   1.594   0.048  1.00  0.00    +0.000 A 
ENDROOT
BRANCH   1  13
ATOM     12  C   UNL     1      -3.303  -1.315   0.301  1.00  0.00    +0.000 C 
ATOM     13  O   UNL     1      -2.856   0.031   0.230  1.00  0.00    +0.000 OA
ENDBRANCH   1  13
BRANCH  11  14
ATOM     14  O   UNL     1      -2.057   2.578   0.100  1.00  0.00    +0.000 OA
ATOM     15  H   UNL     1      -1.627   3.446   0.043  1.00  0.00    +0.000 HD
ENDBRANCH  11  14
TORSDOF 2
