REMARK  Name = SANCDB_01024_minRM1.pdb
AUTHORGENERATED BY OPEN BABEL 2.3.2
REMARK  4 active torsions:
REMARK  status: ('A' for Active; 'I' for Inactive)
REMARK    1  A    between atoms: C_1  and  C_2
REMARK    2  A    between atoms: C_2  and  C_3
REMARK    3  A    between atoms: C_2  and  O_6
REMARK    4  A    between atoms: C_3  and  O_5
REMARK                            x       y       z     vdW  Elec       q    Type
REMARK                         _______ _______ _______ _____ _____    ______ ____
ROOT
ATOM      1  C   UNL     1      -1.272  -0.632   0.192  1.00  0.00    +0.000 C 
ATOM      2  C   UNL     1      -0.274   0.513   0.184  1.00  0.00    +0.000 C 
ENDROOT
BRANCH   2   3
ATOM      3  C   UNL     1       1.136   0.036  -0.157  1.00  0.00    +0.000 C 
ATOM      4  O   UNL     1       1.871   0.552  -0.988  1.00  0.00    +0.000 OA
BRANCH   3   5
ATOM      5  O   UNL     1       1.569  -0.992   0.596  1.00  0.00    +0.000 OA
ATOM      6  H   UNL     1       2.479  -1.162   0.274  1.00  0.00    +0.000 HD
ENDBRANCH   3   5
ENDBRANCH   2   3
BRANCH   2   7
ATOM      7  O   UNL     1      -0.728   1.484  -0.759  1.00  0.00    +0.000 OA
ATOM      8  H   UNL     1       0.063   1.973  -1.060  1.00  0.00    +0.000 HD
ENDBRANCH   2   7
TORSDOF 3
