REMARK  Name = SANCDB_00937_minRM1.pdb
AUTHORGENERATED BY OPEN BABEL 2.3.2
REMARK  4 active torsions:
REMARK  status: ('A' for Active; 'I' for Inactive)
REMARK    1  A    between atoms: C_4  and  O_20
REMARK    2  A    between atoms: C_5  and  C_7
REMARK    3  A    between atoms: C_12  and  O_19
REMARK    4  A    between atoms: C_14  and  O_18
REMARK                            x       y       z     vdW  Elec       q    Type
REMARK                         _______ _______ _______ _____ _____    ______ ____
ROOT
ATOM      1  C   UNL     1       0.551  -0.202  -0.488  1.00  0.00    +0.000 A 
ATOM      2  C   UNL     1      -0.042  -0.892  -1.474  1.00  0.00    +0.000 A 
ATOM      3  C   UNL     1      -1.489  -1.132  -1.404  1.00  0.00    +0.000 A 
ATOM      4  O   UNL     1      -2.082  -1.762  -2.273  1.00  0.00    +0.000 OA
ATOM      5  C   UNL     1      -2.200  -0.588  -0.241  1.00  0.00    +0.000 A 
ATOM      6  C   UNL     1      -3.580  -0.750  -0.083  1.00  0.00    +0.000 A 
ATOM      7  C   UNL     1      -4.220  -0.220   1.035  1.00  0.00    +0.000 A 
ATOM      8  C   UNL     1      -3.476   0.469   1.989  1.00  0.00    +0.000 A 
ATOM      9  C   UNL     1      -2.100   0.635   1.844  1.00  0.00    +0.000 A 
ATOM     10  C   UNL     1      -1.464   0.101   0.721  1.00  0.00    +0.000 A 
ATOM     11  O   UNL     1      -0.107   0.290   0.628  1.00  0.00    +0.000 OA
ENDROOT
BRANCH   1  16
ATOM     12  C   UNL     1       4.128  -0.014   0.700  1.00  0.00    +0.000 A 
ATOM     13  C   UNL     1       4.778   0.538  -0.402  1.00  0.00    +0.000 A 
ATOM     14  C   UNL     1       4.054   0.861  -1.549  1.00  0.00    +0.000 A 
ATOM     15  C   UNL     1       2.677   0.626  -1.591  1.00  0.00    +0.000 A 
ATOM     16  C   UNL     1       2.004   0.060  -0.494  1.00  0.00    +0.000 A 
ATOM     17  C   UNL     1       2.752  -0.249   0.654  1.00  0.00    +0.000 A 
BRANCH  15  18
ATOM     18  O   UNL     1       1.974   0.966  -2.716  1.00  0.00    +0.000 OA
ATOM     19  H   UNL     1       2.575   1.392  -3.349  1.00  0.00    +0.000 HD
ENDBRANCH  15  18
ENDBRANCH   1  16
BRANCH   8  20
ATOM     20  O   UNL     1      -4.140   0.974   3.068  1.00  0.00    +0.000 OA
ATOM     21  H   UNL     1      -3.510   1.438   3.643  1.00  0.00    +0.000 HD
ENDBRANCH   8  20
BRANCH   6  22
ATOM     22  O   UNL     1      -4.361  -1.417  -0.987  1.00  0.00    +0.000 OA
ATOM     23  H   UNL     1      -3.781  -1.735  -1.716  1.00  0.00    +0.000 HD
ENDBRANCH   6  22
TORSDOF 4
