REMARK  Name = /srv/my_project/app/compsite/backup/Dave/CORINA_stuff/newPDBs/SANC00258.pdb
AUTHORGENERATED BY OPEN BABEL 2.3.2
REMARK  4 active torsions:
REMARK  status: ('A' for Active; 'I' for Inactive)
REMARK    1  A    between atoms: C_4  and  C_5
REMARK    2  A    between atoms: C_8  and  O_9
REMARK    3  A    between atoms: C_16  and  O_17
REMARK    4  A    between atoms: C_19  and  O_20
REMARK                            x       y       z     vdW  Elec       q    Type
REMARK                         _______ _______ _______ _____ _____    ______ ____
ROOT
ATOM      1  O   UNL     1       0.117   0.082   1.389  1.00  0.00    +0.000 OA
ATOM      2  C   UNL     1      -0.523  -0.390   0.457  1.00  0.00    +0.000 C 
ATOM      3  C   UNL     1       0.024  -1.346  -0.542  1.00  0.00    +0.000 C 
ATOM      4  C   UNL     1       1.322  -1.430  -0.885  1.00  0.00    +0.000 C 
ATOM      5  C   UNL     1      -1.033  -2.243  -1.110  1.00  0.00    +0.000 C 
ATOM      6  O   UNL     1      -2.128  -1.496  -1.653  1.00  0.00    +0.000 OA
ATOM      7  C   UNL     1      -2.667  -0.604  -0.763  1.00  0.00    +0.000 A 
ATOM      8  C   UNL     1      -3.994  -0.232  -0.978  1.00  0.00    +0.000 A 
ATOM      9  C   UNL     1      -4.603   0.674  -0.114  1.00  0.00    +0.000 A 
ATOM     10  C   UNL     1      -3.905   1.225   0.956  1.00  0.00    +0.000 A 
ATOM     11  C   UNL     1      -2.573   0.868   1.155  1.00  0.00    +0.000 A 
ATOM     12  C   UNL     1      -1.947  -0.043   0.294  1.00  0.00    +0.000 A 
ENDROOT
BRANCH   4  13
ATOM     13  C   UNL     1       2.425  -0.582  -0.418  1.00  0.00    +0.000 A 
ATOM     14  C   UNL     1       3.527  -1.175   0.208  1.00  0.00    +0.000 A 
ATOM     15  C   UNL     1       4.606  -0.393   0.625  1.00  0.00    +0.000 A 
ATOM     16  C   UNL     1       4.585   0.980   0.410  1.00  0.00    +0.000 A 
ATOM     17  C   UNL     1       3.504   1.586  -0.222  1.00  0.00    +0.000 A 
ATOM     18  C   UNL     1       2.426   0.801  -0.642  1.00  0.00    +0.000 A 
BRANCH  16  19
ATOM     19  O   UNL     1       5.657   1.706   0.835  1.00  0.00    +0.000 OA
ATOM     20  H   UNL     1       5.478   2.646   0.667  1.00  0.00    +0.000 HD
ENDBRANCH  16  19
ENDBRANCH   4  13
BRANCH   9  21
ATOM     21  O   UNL     1      -5.905   1.000  -0.354  1.00  0.00    +0.000 OA
ATOM     22  H   UNL     1      -6.197   1.640   0.317  1.00  0.00    +0.000 HD
ENDBRANCH   9  21
BRANCH  11  23
ATOM     23  O   UNL     1      -1.933   1.459   2.212  1.00  0.00    +0.000 OA
ATOM     24  H   UNL     1      -1.004   1.131   2.228  1.00  0.00    +0.000 HD
ENDBRANCH  11  23
TORSDOF 4
