REMARK  Name = SANCDB_01081_minRM1.pdb
AUTHORGENERATED BY OPEN BABEL 2.3.2
REMARK  11 active torsions:
REMARK  status: ('A' for Active; 'I' for Inactive)
REMARK    1  A    between atoms: C_1  and  C_2
REMARK    2  A    between atoms: C_5  and  C_34
REMARK    3  A    between atoms: C_8  and  C_33
REMARK    4  A    between atoms: C_13  and  C_29
REMARK    5  A    between atoms: C_17  and  C_28
REMARK    6  A    between atoms: C_20  and  O_24
REMARK    7  A    between atoms: C_21  and  C_22
REMARK    8  A    between atoms: C_21  and  C_23
REMARK    9  A    between atoms: O_24  and  C_25
REMARK   10  A    between atoms: C_25  and  C_27
REMARK   11  A    between atoms: C_31  and  C_32
REMARK                            x       y       z     vdW  Elec       q    Type
REMARK                         _______ _______ _______ _____ _____    ______ ____
ROOT
ATOM      1  C   UNL     1      -6.349  -0.473   2.991  1.00  0.00    +0.000 C 
ATOM      2  C   UNL     1      -5.796   0.019   1.643  1.00  0.00    +0.000 C 
ATOM      3  C   UNL     1      -6.171  -0.994   0.557  1.00  0.00    +0.000 C 
ATOM      4  C   UNL     1      -5.238  -1.041  -0.644  1.00  0.00    +0.000 C 
ATOM      5  C   UNL     1      -4.458   0.256  -0.926  1.00  0.00    +0.000 C 
ATOM      6  C   UNL     1      -3.668   0.071  -2.254  1.00  0.00    +0.000 C 
ATOM      7  C   UNL     1      -2.233   0.577  -2.183  1.00  0.00    +0.000 C 
ATOM      8  C   UNL     1      -1.407  -0.128  -1.079  1.00  0.00    +0.000 C 
ATOM      9  C   UNL     1      -2.084   0.096   0.283  1.00  0.00    +0.000 C 
ATOM     10  C   UNL     1      -1.327  -0.033   1.397  1.00  0.00    +0.000 C 
ATOM     11  C   UNL     1       0.159  -0.262   1.456  1.00  0.00    +0.000 C 
ATOM     12  C   UNL     1       0.894  -0.351   0.099  1.00  0.00    +0.000 C 
ATOM     13  C   UNL     1       0.123   0.423  -1.036  1.00  0.00    +0.000 C 
ATOM     14  C   UNL     1       0.855   0.178  -2.384  1.00  0.00    +0.000 C 
ATOM     15  C   UNL     1       2.369   0.411  -2.338  1.00  0.00    +0.000 C 
ATOM     16  C   UNL     1       3.053  -0.452  -1.257  1.00  0.00    +0.000 C 
ATOM     17  C   UNL     1       2.474  -0.163   0.173  1.00  0.00    +0.000 C 
ATOM     18  C   UNL     1       3.052  -1.225   1.174  1.00  0.00    +0.000 C 
ATOM     19  C   UNL     1       4.295  -1.980   0.689  1.00  0.00    +0.000 C 
ATOM     20  C   UNL     1       5.283  -1.101  -0.076  1.00  0.00    +0.000 C 
ATOM     21  C   UNL     1       4.631  -0.492  -1.365  1.00  0.00    +0.000 C 
ATOM     22  C   UNL     1       5.260   0.876  -1.706  1.00  0.00    +0.000 C 
ATOM     23  C   UNL     1       4.993  -1.441  -2.545  1.00  0.00    +0.000 C 
ATOM     24  C   UNL     1       2.873   1.240   0.690  1.00  0.00    +0.000 C 
ATOM     25  C   UNL     1       0.106   1.960  -0.783  1.00  0.00    +0.000 C 
ATOM     26  C   UNL     1      -3.560   0.611   0.318  1.00  0.00    +0.000 C 
ATOM     27  C   UNL     1      -4.279   0.329   1.703  1.00  0.00    +0.000 C 
ATOM     28  C   UNL     1      -4.043   1.520   2.659  1.00  0.00    +0.000 C 
ATOM     29  C   UNL     1      -1.457  -1.666  -1.355  1.00  0.00    +0.000 C 
ATOM     30  C   UNL     1      -5.441   1.426  -1.213  1.00  0.00    +0.000 C 
ENDROOT
BRANCH  20  31
ATOM     31  O   UNL     1       5.763  -0.058   0.797  1.00  0.00    +0.000 OA
BRANCH  31  32
ATOM     32  C   UNL     1       6.785  -0.377   1.636  1.00  0.00    +0.000 C 
ATOM     33  O   UNL     1       7.332  -1.467   1.715  1.00  0.00    +0.000 OA
ATOM     34  C   UNL     1       7.149   0.815   2.466  1.00  0.00    +0.000 C 
ENDBRANCH  31  32
ENDBRANCH  20  31
TORSDOF 2
