REMARK  Name = SANCDB_00732_minRM1.pdb
AUTHORGENERATED BY OPEN BABEL 2.3.2
REMARK  3 active torsions:
REMARK  status: ('A' for Active; 'I' for Inactive)
REMARK    1  A    between atoms: C_1  and  C_2
REMARK    2  A    between atoms: C_2  and  C_3
REMARK    3  A    between atoms: C_7  and  C_9
REMARK                            x       y       z     vdW  Elec       q    Type
REMARK                         _______ _______ _______ _____ _____    ______ ____
ROOT
ATOM      1  C   UNL     1      -1.102   0.030  -1.619  1.00  0.00    +0.000 C 
ATOM      2  C   UNL     1      -1.029   0.153  -0.075  1.00  0.00    +0.000 C 
ATOM      3  C   UNL     1       0.040  -0.822   0.503  1.00  0.00    +0.000 C 
ATOM      4  C   UNL     1       1.547  -0.365   0.537  1.00  0.00    +0.000 C 
ATOM      5 BR   UNL     1       1.988   0.001   2.450  1.00  0.00    +0.000 Br
ATOM      6  C   UNL     1       1.766   0.910  -0.309  1.00  0.00    +0.000 C 
ATOM      7 CL   UNL     1       3.406   1.645  -0.236  1.00  0.00    +0.000 Cl
ATOM      8  C   UNL     1       0.753   2.043  -0.081  1.00  0.00    +0.000 C 
ATOM      9  C   UNL     1      -0.669   1.617   0.304  1.00  0.00    +0.000 C 
ATOM     10 CL   UNL     1      -0.927   1.940   2.063  1.00  0.00    +0.000 Cl
ENDROOT
BRANCH   2  11
ATOM     11  C   UNL     1      -2.461  -0.174   0.395  1.00  0.00    +0.000 C 
ATOM     12  C   UNL     1      -3.075  -1.338   0.638  1.00  0.00    +0.000 C 
ATOM     13 CL   UNL     1      -2.442  -2.910   0.440  1.00  0.00    +0.000 Cl
ENDBRANCH   2  11
BRANCH   4  14
ATOM     14  C   UNL     1       2.369  -1.600   0.092  1.00  0.00    +0.000 C 
ATOM     15 BR   UNL     1       4.299  -1.557   0.286  1.00  0.00    +0.000 Br
ENDBRANCH   4  14
TORSDOF 2
