REMARK  Name = /srv/my_project/app/compsite/backup/Dave/CORINA_stuff/newPDBs/SANC00622.pdb
AUTHORGENERATED BY OPEN BABEL 2.3.2
REMARK  3 active torsions:
REMARK  status: ('A' for Active; 'I' for Inactive)
REMARK    1  A    between atoms: C_1  and  C_2
REMARK    2  A    between atoms: C_7  and  C_25
REMARK    3  A    between atoms: C_7  and  O_26
REMARK                            x       y       z     vdW  Elec       q    Type
REMARK                         _______ _______ _______ _____ _____    ______ ____
ROOT
ATOM      1  C   UNL     1      -0.823   2.752  -2.098  1.00  0.00    +0.000 C 
ATOM      2  C   UNL     1      -1.668   2.308  -0.946  1.00  0.00    +0.000 C 
ATOM      3  C   UNL     1      -1.275   1.858   0.265  1.00  0.00    +0.000 C 
ATOM      4  C   UNL     1      -2.274   1.560   1.365  1.00  0.00    +0.000 C 
ATOM      5  C   UNL     1      -3.298   0.482   1.026  1.00  0.00    +0.000 C 
ATOM      6  C   UNL     1      -4.570   0.857   0.773  1.00  0.00    +0.000 C 
ATOM      7  C   UNL     1      -2.844  -0.986   1.070  1.00  0.00    +0.000 C 
ATOM      8  C   UNL     1      -1.917  -1.312  -0.128  1.00  0.00    +0.000 C 
ATOM      9  O   UNL     1      -2.351  -1.536  -1.257  1.00  0.00    +0.000 OA
ATOM     10  O   UNL     1      -0.597  -1.308   0.205  1.00  0.00    +0.000 OA
ATOM     11  C   UNL     1       0.262  -1.587  -0.901  1.00  0.00    +0.000 C 
ATOM     12  C   UNL     1       1.676  -1.638  -0.435  1.00  0.00    +0.000 C 
ATOM     13  C   UNL     1       2.555  -2.617  -0.689  1.00  0.00    +0.000 C 
ATOM     14  C   UNL     1       3.875  -2.304  -0.082  1.00  0.00    +0.000 C 
ATOM     15  N   UNL     1       3.796  -0.880   0.305  1.00  0.00    +0.000 NA
ATOM     16  C   UNL     1       2.328  -0.575   0.418  1.00  0.00    +0.000 C 
ATOM     17  C   UNL     1       2.241   0.891  -0.023  1.00  0.00    +0.000 C 
ATOM     18  C   UNL     1       3.184   0.925  -1.207  1.00  0.00    +0.000 C 
ATOM     19  C   UNL     1       4.320   0.011  -0.760  1.00  0.00    +0.000 C 
ATOM     20  O   UNL     1       0.926   1.313  -0.383  1.00  0.00    +0.000 OA
ATOM     21  C   UNL     1       0.146   1.661   0.672  1.00  0.00    +0.000 C 
ATOM     22  O   UNL     1       0.514   1.713   1.837  1.00  0.00    +0.000 OA
ATOM     23  C   UNL     1      -2.248  -1.399   2.415  1.00  0.00    +0.000 C 
ENDROOT
BRANCH   7  24
ATOM     24  O   UNL     1      -4.005  -1.832   0.893  1.00  0.00    +0.000 OA
ATOM     25  H   UNL     1      -4.204  -1.810  -0.064  1.00  0.00    +0.000 HD
ENDBRANCH   7  24
TORSDOF 1
