REMARK  Name = SANC00491.pdb
AUTHORGENERATED BY OPEN BABEL 2.3.0
REMARK  14 active torsions:
REMARK  status: ('A' for Active; 'I' for Inactive)
REMARK    1  A    between atoms: C_1  and  C_48
REMARK    2  A    between atoms: C_2  and  C_49
REMARK    3  A    between atoms: C_3  and  C_57
REMARK    4  A    between atoms: C_4  and  C_57
REMARK    5  A    between atoms: C_5  and  C_58
REMARK    6  A    between atoms: C_6  and  C_58
REMARK    7  A    between atoms: C_7  and  C_59
REMARK    8  A    between atoms: C_8  and  C_60
REMARK    9  A    between atoms: C_9  and  C_61
REMARK   10  A    between atoms: O_11  and  C_45
REMARK   11  A    between atoms: O_12  and  C_46
REMARK   12  A    between atoms: O_13  and  C_47
REMARK   13  A    between atoms: O_14  and  C_62
REMARK   14  A    between atoms: O_15  and  C_64
REMARK                            x       y       z     vdW  Elec       q    Type
REMARK                         _______ _______ _______ _____ _____    ______ ____
ROOT
ATOM      1  C   UNL     1      10.729   1.317   1.320  1.00  0.00    +0.000 C 
ATOM      2  C   UNL     1     -10.203  -1.321  -0.172  1.00  0.00    +0.000 C 
ATOM      3  C   UNL     1       8.726   0.790  -4.265  1.00  0.00    +0.000 C 
ATOM      4  C   UNL     1      11.180   0.342  -4.097  1.00  0.00    +0.000 C 
ATOM      5  C   UNL     1     -10.182   1.213  -5.118  1.00  0.00    +0.000 C 
ATOM      6  C   UNL     1     -12.303   0.423  -4.044  1.00  0.00    +0.000 C 
ATOM      7  C   UNL     1      -3.387   0.482   3.308  1.00  0.00    +0.000 C 
ATOM      8  C   UNL     1       3.465  -1.857   3.690  1.00  0.00    +0.000 C 
ATOM      9  C   UNL     1      -8.328   0.313   2.664  1.00  0.00    +0.000 C 
ATOM     10  O   UNL     1       8.157   0.557   2.855  1.00  0.00    +0.000 OA
ATOM     11  C   UNL     1       8.296  -2.736   0.061  1.00  0.00    +0.000 C 
ATOM     12  C   UNL     1      -7.335   2.522   0.019  1.00  0.00    +0.000 C 
ATOM     13  C   UNL     1       9.644  -2.115  -0.072  1.00  0.00    +0.000 C 
ATOM     14  C   UNL     1      -3.535   3.037   1.120  1.00  0.00    +0.000 C 
ATOM     15  C   UNL     1       4.093  -3.893   1.185  1.00  0.00    +0.000 C 
ATOM     16  C   UNL     1      -4.870   3.012   1.859  1.00  0.00    +0.000 C 
ATOM     17  C   UNL     1       5.481  -3.581   0.614  1.00  0.00    +0.000 C 
ATOM     18  C   UNL     1       7.575   0.470  -0.497  1.00  0.00    +0.000 C 
ATOM     19  C   UNL     1       5.942  -0.033   2.229  1.00  0.00    +0.000 C 
ATOM     20  C   UNL     1      -1.286   1.918   1.661  1.00  0.00    +0.000 C 
ATOM     21  C   UNL     1       1.752  -2.917   1.486  1.00  0.00    +0.000 C 
ATOM     22  C   UNL     1      -2.604  -0.747   1.268  1.00  0.00    +0.000 C 
ATOM     23  C   UNL     1       3.072  -0.248   1.802  1.00  0.00    +0.000 C 
ATOM     24  C   UNL     1      -5.671  -0.808   1.364  1.00  0.00    +0.000 C 
ATOM     25  C   UNL     1      10.188   2.396  -2.970  1.00  0.00    +0.000 C 
ATOM     26  C   UNL     1     -10.203  -0.950  -3.793  1.00  0.00    +0.000 C 
ATOM     27  N   UNL     1      -0.388  -1.756   1.385  1.00  0.00    +0.000 NA
ATOM     28  N   UNL     1       0.854   0.758   1.718  1.00  0.00    +0.000 NA
ATOM     29  O   UNL     1       8.503   1.531  -0.721  1.00  0.00    +0.000 OA
ATOM     30  O   UNL     1      -8.293   1.346  -1.826  1.00  0.00    +0.000 OA
ATOM     31  O   UNL     1       9.757   0.180  -2.177  1.00  0.00    +0.000 OA
ATOM     32  O   UNL     1     -10.426   1.153  -2.729  1.00  0.00    +0.000 OA
ATOM     33  C   UNL     1       7.439   0.043   1.996  1.00  0.00    +0.000 C 
ATOM     34  C   UNL     1       7.364  -1.857   0.458  1.00  0.00    +0.000 C 
ATOM     35  C   UNL     1      -6.965   1.716   1.023  1.00  0.00    +0.000 C 
ATOM     36  C   UNL     1      -0.491   0.639   1.585  1.00  0.00    +0.000 A 
ATOM     37  C   UNL     1       0.956  -1.637   1.507  1.00  0.00    +0.000 A 
ATOM     38  C   UNL     1      -1.108  -0.607   1.433  1.00  0.00    +0.000 A 
ATOM     39  C   UNL     1       1.571  -0.393   1.685  1.00  0.00    +0.000 A 
ATOM     40  C   UNL     1      -7.085  -0.718   0.719  1.00  0.00    +0.000 C 
ATOM     41  C   UNL     1      10.644   2.278  -1.531  1.00  0.00    +0.000 C 
ATOM     42  C   UNL     1      -8.952  -0.704  -2.986  1.00  0.00    +0.000 C 
ATOM     43  C   UNL     1      10.418   0.331   0.181  1.00  0.00    +0.000 C 
ATOM     44  C   UNL     1      -9.966   0.113  -0.615  1.00  0.00    +0.000 C 
ATOM     45  C   UNL     1      -8.591   2.059  -0.629  1.00  0.00    +0.000 C 
ATOM     46  C   UNL     1      -2.711   1.734   1.126  1.00  0.00    +0.000 C 
ATOM     47  C   UNL     1       3.236  -2.636   1.223  1.00  0.00    +0.000 C 
ATOM     48  C   UNL     1      -5.667   1.695   1.782  1.00  0.00    +0.000 C 
ATOM     49  C   UNL     1       5.882  -2.083   0.696  1.00  0.00    +0.000 C 
ATOM     50  C   UNL     1       9.484  -0.792   0.698  1.00  0.00    +0.000 C 
ATOM     51  C   UNL     1      -4.862   0.503   1.204  1.00  0.00    +0.000 C 
ATOM     52  C   UNL     1       9.965   0.939  -3.382  1.00  0.00    +0.000 C 
ATOM     53  C   UNL     1     -10.781   0.450  -3.933  1.00  0.00    +0.000 C 
ATOM     54  C   UNL     1      -3.406   0.490   1.758  1.00  0.00    +0.000 C 
ATOM     55  C   UNL     1       3.814  -1.558   2.202  1.00  0.00    +0.000 C 
ATOM     56  C   UNL     1      -7.917   0.518   1.186  1.00  0.00    +0.000 C 
ATOM     57  C   UNL     1       5.409  -1.466   2.050  1.00  0.00    +0.000 C 
ATOM     58  C   UNL     1       7.968  -0.473   0.649  1.00  0.00    +0.000 C 
ATOM     59  C   UNL     1      -9.168   1.014   0.339  1.00  0.00    +0.000 C 
ATOM     60  C   UNL     1       9.823   1.062  -1.041  1.00  0.00    +0.000 C 
ATOM     61  C   UNL     1      -9.386   0.419  -2.021  1.00  0.00    +0.000 C 
ENDROOT
BRANCH  40  62
ATOM     62  O   UNL     1      -6.906  -0.760  -0.700  1.00  0.00    +0.000 OA
ATOM     63  H   UNL     1      -6.608   0.127  -0.988  1.00  0.00    +0.000 HD
ENDBRANCH  40  62
BRANCH  41  64
ATOM     64  O   UNL     1      12.056   2.059  -1.508  1.00  0.00    +0.000 OA
ATOM     65  H   UNL     1      12.482   2.883  -1.804  1.00  0.00    +0.000 HD
ENDBRANCH  41  64
BRANCH  42  66
ATOM     66  O   UNL     1      -8.483  -1.914  -2.423  1.00  0.00    +0.000 OA
ATOM     67  H   UNL     1      -7.738  -1.671  -1.827  1.00  0.00    +0.000 HD
ENDBRANCH  42  66
BRANCH  57  68
ATOM     68  O   UNL     1       6.013  -2.290   3.072  1.00  0.00    +0.000 OA
ATOM     69  H   UNL     1       6.131  -1.773   3.889  1.00  0.00    +0.000 HD
ENDBRANCH  57  68
BRANCH  59  70
ATOM     70  O   UNL     1     -10.111   1.658   1.230  1.00  0.00    +0.000 OA
ATOM     71  H   UNL     1     -10.744   2.171   0.697  1.00  0.00    +0.000 HD
ENDBRANCH  59  70
TORSDOF 5
