REMARK  Name = SANCDB_01090_minRM1.pdb
AUTHORGENERATED BY OPEN BABEL 2.3.2
REMARK  11 active torsions:
REMARK  status: ('A' for Active; 'I' for Inactive)
REMARK    1  A    between atoms: C_2  and  O_25
REMARK    2  A    between atoms: C_3  and  O_24
REMARK    3  A    between atoms: C_4  and  O_11
REMARK    4  A    between atoms: C_6  and  C_7
REMARK    5  A    between atoms: C_6  and  O_10
REMARK    6  A    between atoms: C_7  and  O_9
REMARK    7  A    between atoms: O_11  and  C_12
REMARK    8  A    between atoms: C_12  and  C_14
REMARK    9  A    between atoms: C_15  and  C_16
REMARK   10  A    between atoms: C_18  and  O_23
REMARK   11  A    between atoms: C_19  and  O_22
REMARK                            x       y       z     vdW  Elec       q    Type
REMARK                         _______ _______ _______ _____ _____    ______ ____
ROOT
ATOM      1  C   UNL     1      -4.732  -0.689   0.412  1.00  0.00    +0.000 C 
ATOM      2  C   UNL     1      -3.877  -0.366   1.633  1.00  0.00    +0.000 C 
ATOM      3  C   UNL     1      -2.394  -0.696   1.377  1.00  0.00    +0.000 C 
ATOM      4  C   UNL     1      -1.948  -0.371  -0.068  1.00  0.00    +0.000 C 
ATOM      5  C   UNL     1      -2.863   0.665  -0.721  1.00  0.00    +0.000 C 
ATOM      6  C   UNL     1      -4.311   0.157  -0.800  1.00  0.00    +0.000 C 
ENDROOT
BRANCH   6   7
ATOM      7  C   UNL     1      -5.285   1.334  -0.968  1.00  0.00    +0.000 C 
ATOM      8  O   UNL     1      -6.115   1.436  -1.859  1.00  0.00    +0.000 OA
BRANCH   7   9
ATOM      9  O   UNL     1      -5.197   2.266  -0.002  1.00  0.00    +0.000 OA
ATOM     10  H   UNL     1      -5.893   2.920  -0.228  1.00  0.00    +0.000 HD
ENDBRANCH   7   9
ENDBRANCH   6   7
BRANCH   6  11
ATOM     11  O   UNL     1      -4.396  -0.684  -1.961  1.00  0.00    +0.000 OA
ATOM     12  H   UNL     1      -5.324  -0.653  -2.270  1.00  0.00    +0.000 HD
ENDBRANCH   6  11
BRANCH   3  13
ATOM     13  O   UNL     1      -2.217  -2.105   1.635  1.00  0.00    +0.000 OA
ATOM     14  H   UNL     1      -1.286  -2.320   1.397  1.00  0.00    +0.000 HD
ENDBRANCH   3  13
BRANCH   2  15
ATOM     15  O   UNL     1      -4.354  -1.113   2.753  1.00  0.00    +0.000 OA
ATOM     16  H   UNL     1      -3.846  -1.953   2.728  1.00  0.00    +0.000 HD
ENDBRANCH   2  15
BRANCH   4  17
ATOM     17  O   UNL     1      -0.608   0.180  -0.081  1.00  0.00    +0.000 OA
BRANCH  17  18
ATOM     18  C   UNL     1       0.392  -0.680   0.234  1.00  0.00    +0.000 C 
ATOM     19  O   UNL     1       0.255  -1.840   0.588  1.00  0.00    +0.000 OA
BRANCH  18  20
ATOM     20  C   UNL     1       1.676   0.031   0.097  1.00  0.00    +0.000 C 
ATOM     21  C   UNL     1       2.823  -0.602   0.387  1.00  0.00    +0.000 C 
BRANCH  21  22
ATOM     22  C   UNL     1       4.151   0.015   0.265  1.00  0.00    +0.000 A 
ATOM     23  C   UNL     1       5.226  -0.782  -0.160  1.00  0.00    +0.000 A 
ATOM     24  C   UNL     1       6.498  -0.226  -0.261  1.00  0.00    +0.000 A 
ATOM     25  C   UNL     1       6.712   1.109   0.069  1.00  0.00    +0.000 A 
ATOM     26  C   UNL     1       5.667   1.906   0.506  1.00  0.00    +0.000 A 
ATOM     27  C   UNL     1       4.386   1.357   0.610  1.00  0.00    +0.000 A 
BRANCH  25  28
ATOM     28  O   UNL     1       7.963   1.645  -0.032  1.00  0.00    +0.000 OA
ATOM     29  H   UNL     1       8.522   0.908  -0.349  1.00  0.00    +0.000 HD
ENDBRANCH  25  28
BRANCH  24  30
ATOM     30  O   UNL     1       7.577  -0.957  -0.679  1.00  0.00    +0.000 OA
ATOM     31  H   UNL     1       7.276  -1.862  -0.870  1.00  0.00    +0.000 HD
ENDBRANCH  24  30
ENDBRANCH  21  22
ENDBRANCH  18  20
ENDBRANCH  17  18
ENDBRANCH   4  17
TORSDOF 11
