REMARK  Name = /srv/my_project/app/compsite/backup/Dave/CORINA_stuff/newPDBs/SANC00158.pdb
AUTHORGENERATED BY OPEN BABEL 2.3.2
REMARK  9 active torsions:
REMARK  status: ('A' for Active; 'I' for Inactive)
REMARK    1  A    between atoms: C_5  and  C_6
REMARK    2  A    between atoms: C_18  and  C_19
REMARK    3  A    between atoms: C_19  and  C_20
REMARK    4  A    between atoms: C_20  and  C_21
REMARK    5  A    between atoms: C_21  and  O_22
REMARK    6  A    between atoms: C_21  and  C_26
REMARK    7  A    between atoms: O_22  and  C_23
REMARK    8  A    between atoms: C_23  and  C_24
REMARK    9  A    between atoms: C_26  and  C_28
REMARK                            x       y       z     vdW  Elec       q    Type
REMARK                         _______ _______ _______ _____ _____    ______ ____
ROOT
ATOM      1  C   UNL     1      -0.969  -0.363  -0.802  1.00  0.00    +0.000 C 
ATOM      2  C   UNL     1      -1.026   0.814  -1.822  1.00  0.00    +0.000 C 
ATOM      3  C   UNL     1      -1.356   2.179  -1.196  1.00  0.00    +0.000 C 
ATOM      4  C   UNL     1      -2.559   2.335  -0.281  1.00  0.00    +0.000 C 
ATOM      5  C   UNL     1      -2.304   3.273   0.878  1.00  0.00    +0.000 C 
ATOM      6  C   UNL     1      -3.771   1.756  -0.396  1.00  0.00    +0.000 C 
ATOM      7  C   UNL     1      -4.291   0.846  -1.471  1.00  0.00    +0.000 C 
ATOM      8  C   UNL     1      -4.501  -0.602  -1.003  1.00  0.00    +0.000 C 
ATOM      9  C   UNL     1      -3.312  -1.255  -0.320  1.00  0.00    +0.000 C 
ATOM     10  C   UNL     1      -3.406  -1.657   0.961  1.00  0.00    +0.000 C 
ATOM     11  C   UNL     1      -2.044  -1.433  -1.150  1.00  0.00    +0.000 C 
ATOM     12  C   UNL     1      -1.480  -2.854  -1.089  1.00  0.00    +0.000 C 
ATOM     13  O   UNL     1      -0.284  -2.966  -1.874  1.00  0.00    +0.000 OA
ATOM     14  C   UNL     1       0.693  -2.040  -1.740  1.00  0.00    +0.000 C 
ATOM     15  O   UNL     1       1.733  -2.117  -2.388  1.00  0.00    +0.000 OA
ATOM     16  C   UNL     1       0.468  -0.945  -0.718  1.00  0.00    +0.000 C 
ENDROOT
BRANCH  16  17
ATOM     17  C   UNL     1       0.845  -1.420   0.703  1.00  0.00    +0.000 C 
BRANCH  17  18
ATOM     18  C   UNL     1       2.341  -1.730   0.906  1.00  0.00    +0.000 C 
BRANCH  18  19
ATOM     19  C   UNL     1       3.276  -0.503   0.847  1.00  0.00    +0.000 C 
BRANCH  19  20
ATOM     20  C   UNL     1       4.762  -0.803   1.015  1.00  0.00    +0.000 C 
ATOM     21  C   UNL     1       5.291  -2.008   1.296  1.00  0.00    +0.000 C 
ATOM     22  C   UNL     1       5.669   0.386   0.812  1.00  0.00    +0.000 C 
ENDBRANCH  19  20
BRANCH  19  23
ATOM     23  O   UNL     1       2.919   0.382   1.931  1.00  0.00    +0.000 OA
BRANCH  23  24
ATOM     24  C   UNL     1       2.298   1.545   1.607  1.00  0.00    +0.000 C 
ATOM     25  C   UNL     1       2.028   2.339   2.848  1.00  0.00    +0.000 C 
ATOM     26  O   UNL     1       1.982   1.904   0.482  1.00  0.00    +0.000 OA
ENDBRANCH  23  24
ENDBRANCH  19  23
ENDBRANCH  18  19
ENDBRANCH  17  18
ENDBRANCH  16  17
TORSDOF 6
