REMARK  Name = /srv/my_project/app/compsite/backup/Dave/CORINA_stuff/newPDBs/SANC00658.pdb
AUTHORGENERATED BY OPEN BABEL 2.3.2
REMARK  5 active torsions:
REMARK  status: ('A' for Active; 'I' for Inactive)
REMARK    1  A    between atoms: C_1  and  C_2
REMARK    2  A    between atoms: C_9  and  C_10
REMARK    3  A    between atoms: C_10  and  O_11
REMARK    4  A    between atoms: C_15  and  C_16
REMARK    5  A    between atoms: C_19  and  O_21
REMARK                            x       y       z     vdW  Elec       q    Type
REMARK                         _______ _______ _______ _____ _____    ______ ____
ROOT
ATOM      1  C   UNL     1       4.204  -0.155   0.504  1.00  0.00    +0.000 C 
ATOM      2  C   UNL     1       2.860  -0.809   0.790  1.00  0.00    +0.000 C 
ATOM      3  C   UNL     1       2.811  -2.201   0.192  1.00  0.00    +0.000 C 
ATOM      4  O   UNL     1       3.718  -3.017   0.200  1.00  0.00    +0.000 OA
ATOM      5  O   UNL     1       1.587  -2.431  -0.373  1.00  0.00    +0.000 OA
ATOM      6  C   UNL     1       0.735  -1.356  -0.009  1.00  0.00    +0.000 C 
ATOM      7  C   UNL     1      -0.328  -1.161  -1.039  1.00  0.00    +0.000 C 
ATOM      8  C   UNL     1      -1.656  -1.347  -0.883  1.00  0.00    +0.000 C 
ATOM      9  C   UNL     1      -2.599  -0.667  -1.863  1.00  0.00    +0.000 C 
ATOM     10  C   UNL     1      -2.427   0.873  -1.856  1.00  0.00    +0.000 C 
ATOM     11  C   UNL     1      -2.433   1.450  -0.460  1.00  0.00    +0.000 C 
ATOM     12  C   UNL     1      -1.377   1.850   0.278  1.00  0.00    +0.000 C 
ATOM     13  C   UNL     1       0.079   1.910  -0.104  1.00  0.00    +0.000 C 
ATOM     14  C   UNL     1       1.029   1.065   0.798  1.00  0.00    +0.000 C 
ATOM     15  C   UNL     1       1.669  -0.148   0.091  1.00  0.00    +0.000 C 
ENDROOT
BRANCH  12  16
ATOM     16  C   UNL     1      -1.684   2.252   1.681  1.00  0.00    +0.000 C 
ATOM     17  O   UNL     1      -2.464   1.617   2.380  1.00  0.00    +0.000 OA
ENDBRANCH  12  16
BRANCH  14  18
ATOM     18  O   UNL     1       2.054   1.940   1.275  1.00  0.00    +0.000 OA
ATOM     19  H   UNL     1       2.530   2.314   0.512  1.00  0.00    +0.000 HD
ENDBRANCH  14  18
BRANCH   8  20
ATOM     20  C   UNL     1      -2.311  -2.102   0.247  1.00  0.00    +0.000 C 
BRANCH  20  21
ATOM     21  O   UNL     1      -3.222  -1.273   0.946  1.00  0.00    +0.000 OA
ATOM     22  H   UNL     1      -2.720  -0.570   1.399  1.00  0.00    +0.000 HD
ENDBRANCH  20  21
ENDBRANCH   8  20
TORSDOF 4
