REMARK  Name = /srv/my_project/app/compsite/backup/Dave/CORINA_stuff/newPDBs/SANC00553.pdb
AUTHORGENERATED BY OPEN BABEL 2.3.2
REMARK  9 active torsions:
REMARK  status: ('A' for Active; 'I' for Inactive)
REMARK    1  A    between atoms: C_4  and  C_5
REMARK    2  A    between atoms: C_4  and  C_6
REMARK    3  A    between atoms: C_6  and  O_8
REMARK    4  A    between atoms: C_11  and  C_12
REMARK    5  A    between atoms: C_15  and  C_16
REMARK    6  A    between atoms: C_21  and  C_22
REMARK    7  A    between atoms: C_23  and  C_25
REMARK    8  A    between atoms: C_32  and  C_33
REMARK    9  A    between atoms: C_36  and  C_37
REMARK                            x       y       z     vdW  Elec       q    Type
REMARK                         _______ _______ _______ _____ _____    ______ ____
ROOT
ATOM      1  C   UNL     1       2.738   0.046   0.164  1.00  0.00    +0.000 C 
ATOM      2  C   UNL     1       3.664  -1.137   0.581  1.00  0.00    +0.000 C 
ATOM      3  C   UNL     1       5.178  -0.838   0.514  1.00  0.00    +0.000 C 
ATOM      4  C   UNL     1       5.948  -2.058   1.060  1.00  0.00    +0.000 C 
ATOM      5  C   UNL     1       5.518   0.407   1.369  1.00  0.00    +0.000 C 
ATOM      6  C   UNL     1       4.290   1.183   1.855  1.00  0.00    +0.000 C 
ATOM      7  C   UNL     1       3.220   1.429   0.755  1.00  0.00    +0.000 C 
ATOM      8  C   UNL     1       3.896   2.304  -0.338  1.00  0.00    +0.000 C 
ATOM      9  C   UNL     1       2.087   2.286   1.386  1.00  0.00    +0.000 C 
ATOM     10  C   UNL     1       0.674   2.204   0.787  1.00  0.00    +0.000 C 
ATOM     11  C   UNL     1       0.336   0.958  -0.081  1.00  0.00    +0.000 C 
ATOM     12  C   UNL     1       0.647   1.343  -1.558  1.00  0.00    +0.000 C 
ATOM     13  C   UNL     1      -1.208   0.615   0.023  1.00  0.00    +0.000 C 
ATOM     14  C   UNL     1      -2.174   1.815  -0.137  1.00  0.00    +0.000 C 
ATOM     15  C   UNL     1      -3.505   1.555  -0.840  1.00  0.00    +0.000 C 
ATOM     16  C   UNL     1      -4.183   0.167  -0.641  1.00  0.00    +0.000 C 
ATOM     17  C   UNL     1      -4.891  -0.150  -1.991  1.00  0.00    +0.000 C 
ATOM     18  C   UNL     1      -5.250   0.210   0.507  1.00  0.00    +0.000 C 
ATOM     19  C   UNL     1      -6.548   0.952   0.177  1.00  0.00    +0.000 C 
ATOM     20  C   UNL     1      -5.608  -1.190   1.032  1.00  0.00    +0.000 C 
ATOM     21  O   UNL     1      -6.314  -1.319   2.037  1.00  0.00    +0.000 OA
ATOM     22  C   UNL     1      -5.152  -2.421   0.264  1.00  0.00    +0.000 C 
ATOM     23  C   UNL     1      -3.745  -2.325  -0.337  1.00  0.00    +0.000 C 
ATOM     24  C   UNL     1      -3.146  -0.920  -0.193  1.00  0.00    +0.000 C 
ATOM     25  C   UNL     1      -1.675  -0.698  -0.705  1.00  0.00    +0.000 C 
ATOM     26  C   UNL     1      -1.626  -0.666  -2.245  1.00  0.00    +0.000 C 
ATOM     27  C   UNL     1      -0.749  -1.858  -0.243  1.00  0.00    +0.000 C 
ATOM     28  C   UNL     1       0.757  -1.557  -0.350  1.00  0.00    +0.000 C 
ATOM     29  C   UNL     1       1.203  -0.274   0.422  1.00  0.00    +0.000 C 
ATOM     30  C   UNL     1       0.985  -0.606   1.937  1.00  0.00    +0.000 C 
ENDROOT
BRANCH   3  31
ATOM     31  C   UNL     1       5.683  -0.664  -0.920  1.00  0.00    +0.000 C 
ATOM     32  O   UNL     1       6.686  -0.060  -1.267  1.00  0.00    +0.000 OA
BRANCH  31  33
ATOM     33  O   UNL     1       4.958  -1.318  -1.847  1.00  0.00    +0.000 OA
ATOM     34  H   UNL     1       5.433  -1.136  -2.685  1.00  0.00    +0.000 HD
ENDBRANCH  31  33
ENDBRANCH   3  31
TORSDOF 2
