REMARK  Name = SANCDB_01119_minRM1.pdb
AUTHORGENERATED BY OPEN BABEL 2.3.2
REMARK  11 active torsions:
REMARK  status: ('A' for Active; 'I' for Inactive)
REMARK    1  A    between atoms: C_2  and  O_21
REMARK    2  A    between atoms: C_3  and  C_13
REMARK    3  A    between atoms: C_7  and  O_12
REMARK    4  A    between atoms: C_9  and  O_11
REMARK    5  A    between atoms: C_15  and  O_20
REMARK    6  A    between atoms: C_16  and  O_19
REMARK    7  A    between atoms: O_21  and  C_22
REMARK    8  A    between atoms: C_22  and  C_24
REMARK    9  A    between atoms: C_26  and  O_32
REMARK   10  A    between atoms: C_27  and  O_31
REMARK   11  A    between atoms: C_28  and  O_30
REMARK                            x       y       z     vdW  Elec       q    Type
REMARK                         _______ _______ _______ _____ _____    ______ ____
ROOT
ATOM      1  C   UNL     1      -0.721  -1.432   0.738  1.00  0.00    +0.000 C 
ATOM      2  C   UNL     1      -0.145  -1.124  -0.640  1.00  0.00    +0.000 C 
ATOM      3  C   UNL     1      -1.194  -0.371  -1.487  1.00  0.00    +0.000 C 
ATOM      4  O   UNL     1      -2.414  -1.122  -1.640  1.00  0.00    +0.000 OA
ATOM      5  C   UNL     1      -2.824  -1.879  -0.574  1.00  0.00    +0.000 A 
ATOM      6  C   UNL     1      -4.079  -2.472  -0.709  1.00  0.00    +0.000 A 
ATOM      7  C   UNL     1      -4.603  -3.228   0.332  1.00  0.00    +0.000 A 
ATOM      8  C   UNL     1      -3.894  -3.400   1.516  1.00  0.00    +0.000 A 
ATOM      9  C   UNL     1      -2.637  -2.809   1.640  1.00  0.00    +0.000 A 
ATOM     10  C   UNL     1      -2.078  -2.058   0.598  1.00  0.00    +0.000 A 
ENDROOT
BRANCH   3  11
ATOM     11  C   UNL     1      -1.462   1.079  -1.077  1.00  0.00    +0.000 A 
ATOM     12  C   UNL     1      -2.576   1.455  -0.307  1.00  0.00    +0.000 A 
ATOM     13  C   UNL     1      -2.762   2.790   0.045  1.00  0.00    +0.000 A 
ATOM     14  C   UNL     1      -1.853   3.761  -0.360  1.00  0.00    +0.000 A 
ATOM     15  C   UNL     1      -0.750   3.420  -1.123  1.00  0.00    +0.000 A 
ATOM     16  C   UNL     1      -0.558   2.084  -1.483  1.00  0.00    +0.000 A 
BRANCH  14  17
ATOM     17  O   UNL     1      -2.046   5.066  -0.007  1.00  0.00    +0.000 OA
ATOM     18  H   UNL     1      -2.871   5.055   0.517  1.00  0.00    +0.000 HD
ENDBRANCH  14  17
BRANCH  13  19
ATOM     19  O   UNL     1      -3.835   3.195   0.792  1.00  0.00    +0.000 OA
ATOM     20  H   UNL     1      -4.385   2.413   0.971  1.00  0.00    +0.000 HD
ENDBRANCH  13  19
ENDBRANCH   3  11
BRANCH   9  21
ATOM     21  O   UNL     1      -1.922  -2.951   2.796  1.00  0.00    +0.000 OA
ATOM     22  H   UNL     1      -2.406  -3.530   3.406  1.00  0.00    +0.000 HD
ENDBRANCH   9  21
BRANCH   7  23
ATOM     23  O   UNL     1      -5.837  -3.782   0.154  1.00  0.00    +0.000 OA
ATOM     24  H   UNL     1      -6.065  -4.314   0.934  1.00  0.00    +0.000 HD
ENDBRANCH   7  23
BRANCH   2  25
ATOM     25  O   UNL     1       1.076  -0.364  -0.531  1.00  0.00    +0.000 OA
BRANCH  25  26
ATOM     26  C   UNL     1       2.201  -1.073  -0.280  1.00  0.00    +0.000 C 
ATOM     27  O   UNL     1       2.275  -2.287  -0.172  1.00  0.00    +0.000 OA
BRANCH  26  28
ATOM     28  C   UNL     1       3.380  -0.175  -0.171  1.00  0.00    +0.000 A 
ATOM     29  C   UNL     1       3.257   1.223  -0.150  1.00  0.00    +0.000 A 
ATOM     30  C   UNL     1       4.401   2.004  -0.052  1.00  0.00    +0.000 A 
ATOM     31  C   UNL     1       5.655   1.415   0.031  1.00  0.00    +0.000 A 
ATOM     32  C   UNL     1       5.782   0.032   0.018  1.00  0.00    +0.000 A 
ATOM     33  C   UNL     1       4.652  -0.773  -0.083  1.00  0.00    +0.000 A 
BRANCH  32  34
ATOM     34  O   UNL     1       7.041  -0.494   0.105  1.00  0.00    +0.000 OA
ATOM     35  H   UNL     1       6.971  -1.465   0.095  1.00  0.00    +0.000 HD
ENDBRANCH  32  34
BRANCH  31  36
ATOM     36  O   UNL     1       6.761   2.215   0.127  1.00  0.00    +0.000 OA
ATOM     37  H   UNL     1       7.511   1.587   0.175  1.00  0.00    +0.000 HD
ENDBRANCH  31  36
BRANCH  30  38
ATOM     38  O   UNL     1       4.281   3.363  -0.037  1.00  0.00    +0.000 OA
ATOM     39  H   UNL     1       5.199   3.695   0.044  1.00  0.00    +0.000 HD
ENDBRANCH  30  38
ENDBRANCH  26  28
ENDBRANCH  25  26
ENDBRANCH   2  25
TORSDOF 11
