REMARK  Name = /srv/my_project/app/compsite/backup/Dave/CORINA_stuff/newPDBs/SANC00583.pdb
AUTHORGENERATED BY OPEN BABEL 2.3.2
REMARK  14 active torsions:
REMARK  status: ('A' for Active; 'I' for Inactive)
REMARK    1  A    between atoms: C_4  and  C_5
REMARK    2  A    between atoms: C_5  and  O_7
REMARK    3  A    between atoms: O_7  and  C_8
REMARK    4  A    between atoms: C_9  and  O_10
REMARK    5  A    between atoms: C_13  and  C_14
REMARK    6  A    between atoms: C_16  and  O_18
REMARK    7  A    between atoms: O_18  and  C_19
REMARK    8  A    between atoms: C_19  and  C_21
REMARK    9  A    between atoms: C_22  and  C_23
REMARK   10  A    between atoms: N_25  and  C_26
REMARK   11  A    between atoms: C_32  and  C_33
REMARK   12  A    between atoms: C_36  and  C_38
REMARK   13  A    between atoms: C_38  and  C_39
REMARK   14  A    between atoms: C_38  and  C_40
REMARK                            x       y       z     vdW  Elec       q    Type
REMARK                         _______ _______ _______ _____ _____    ______ ____
ROOT
ATOM      1  C   UNL     1      -2.692   0.466   0.613  1.00  0.00    +0.000 C 
ATOM      2  C   UNL     1      -2.894  -0.602  -0.498  1.00  0.00    +0.000 C 
ATOM      3  C   UNL     1      -2.913  -2.087  -0.041  1.00  0.00    +0.000 C 
ATOM      4  C   UNL     1      -1.607  -2.890  -0.179  1.00  0.00    +0.000 C 
ATOM      5  C   UNL     1      -0.833  -2.700  -1.434  1.00  0.00    +0.000 C 
ATOM      6  C   UNL     1       0.396  -2.265  -1.161  1.00  0.00    +0.000 C 
ATOM      7  C   UNL     1       0.580  -2.152   0.319  1.00  0.00    +0.000 C 
ATOM      8  C   UNL     1       1.591  -3.199   0.799  1.00  0.00    +0.000 C 
ATOM      9  O   UNL     1      -0.708  -2.507   0.874  1.00  0.00    +0.000 OA
ATOM     10  C   UNL     1       0.963  -0.725   0.810  1.00  0.00    +0.000 C 
ATOM     11  C   UNL     1      -0.087   0.363   0.491  1.00  0.00    +0.000 C 
ATOM     12  C   UNL     1      -1.345   0.321   1.400  1.00  0.00    +0.000 C 
ATOM     13  C   UNL     1      -1.218   1.395   2.476  1.00  0.00    +0.000 C 
ATOM     14  C   UNL     1      -0.302   1.102   3.633  1.00  0.00    +0.000 C 
ATOM     15  C   UNL     1      -1.903   2.548   2.410  1.00  0.00    +0.000 C 
ATOM     16  C   UNL     1      -2.838   2.914   1.300  1.00  0.00    +0.000 C 
ATOM     17  C   UNL     1      -2.836   1.939   0.096  1.00  0.00    +0.000 C 
ENDROOT
BRANCH  17  18
ATOM     18  C   UNL     1      -4.035   2.209  -0.866  1.00  0.00    +0.000 C 
ATOM     19  C   UNL     1      -5.410   1.906  -0.259  1.00  0.00    +0.000 C 
ATOM     20  C   UNL     1      -4.024   3.645  -1.406  1.00  0.00    +0.000 C 
ENDBRANCH  17  18
BRANCH   3  21
ATOM     21  C   UNL     1      -4.016  -2.833  -0.764  1.00  0.00    +0.000 C 
ATOM     22  O   UNL     1      -4.898  -3.456  -0.182  1.00  0.00    +0.000 OA
BRANCH  21  23
ATOM     23  O   UNL     1      -3.908  -2.719  -2.116  1.00  0.00    +0.000 OA
ATOM     24  C   UNL     1      -4.913  -3.427  -2.842  1.00  0.00    +0.000 C 
ENDBRANCH  21  23
ENDBRANCH   3  21
BRANCH   4  25
ATOM     25  O   UNL     1      -1.814  -4.283  -0.024  1.00  0.00    +0.000 OA
ATOM     26  H   UNL     1      -2.219  -4.390   0.854  1.00  0.00    +0.000 HD
ENDBRANCH   4  25
BRANCH  10  27
ATOM     27  O   UNL     1       2.198  -0.305   0.176  1.00  0.00    +0.000 OA
BRANCH  27  28
ATOM     28  C   UNL     1       3.311  -0.305   0.951  1.00  0.00    +0.000 C 
ATOM     29  O   UNL     1       3.387  -0.649   2.117  1.00  0.00    +0.000 OA
BRANCH  28  30
ATOM     30  C   UNL     1       4.431   0.179   0.124  1.00  0.00    +0.000 C 
ATOM     31  C   UNL     1       5.665   0.252   0.644  1.00  0.00    +0.000 C 
BRANCH  31  32
ATOM     32  C   UNL     1       6.829   0.697  -0.035  1.00  0.00    +0.000 A 
ATOM     33  C   UNL     1       6.965   1.146  -1.329  1.00  0.00    +0.000 A 
ATOM     34  N   UNL     1       8.294   1.441  -1.451  1.00  0.00    +0.000 N 
ATOM     35  C   UNL     1       8.959   1.951  -2.622  1.00  0.00    +0.000 C 
ATOM     36  C   UNL     1       8.896   1.166  -0.258  1.00  0.00    +0.000 A 
ATOM     37  N   UNL     1       8.030   0.713   0.621  1.00  0.00    +0.000 NA
ENDBRANCH  31  32
ENDBRANCH  28  30
ENDBRANCH  27  28
ENDBRANCH  10  27
TORSDOF 8
