REMARK  Name = /srv/my_project/app/compsite/backup/Dave/CORINA_stuff/newPDBs/SANC00322.pdb
AUTHORGENERATED BY OPEN BABEL 2.3.2
REMARK  2 active torsions:
REMARK  status: ('A' for Active; 'I' for Inactive)
REMARK    1  A    between atoms: C_4  and  O_6
REMARK    2  A    between atoms: C_22  and  O_24
REMARK                            x       y       z     vdW  Elec       q    Type
REMARK                         _______ _______ _______ _____ _____    ______ ____
ROOT
ATOM      1  C   UNL     1      -1.421  -0.187  -0.793  1.00  0.00    +0.000 C 
ATOM      2  C   UNL     1      -2.910   0.170  -0.729  1.00  0.00    +0.000 C 
ATOM      3  C   UNL     1      -3.065   1.674  -0.483  1.00  0.00    +0.000 C 
ATOM      4  C   UNL     1      -2.183   2.171   0.626  1.00  0.00    +0.000 C 
ATOM      5  C   UNL     1      -1.120   1.490   1.091  1.00  0.00    +0.000 C 
ATOM      6  C   UNL     1      -0.657   0.163   0.516  1.00  0.00    +0.000 C 
ATOM      7  C   UNL     1       0.850   0.091   0.174  1.00  0.00    +0.000 A 
ATOM      8  C   UNL     1       1.820   0.906   0.780  1.00  0.00    +0.000 A 
ATOM      9  C   UNL     1       3.142   0.714   0.432  1.00  0.00    +0.000 A 
ATOM     10  O   UNL     1       4.198   1.418   0.922  1.00  0.00    +0.000 OA
ATOM     11  C   UNL     1       5.291   0.796   0.214  1.00  0.00    +0.000 C 
ATOM     12  O   UNL     1       4.873  -0.267  -0.667  1.00  0.00    +0.000 OA
ATOM     13  C   UNL     1       3.527  -0.247  -0.471  1.00  0.00    +0.000 A 
ATOM     14  C   UNL     1       2.615  -1.078  -1.082  1.00  0.00    +0.000 A 
ATOM     15  C   UNL     1       1.259  -0.918  -0.755  1.00  0.00    +0.000 A 
ATOM     16  C   UNL     1       0.226  -1.805  -1.438  1.00  0.00    +0.000 C 
ATOM     17  N   UNL     1      -1.166  -1.643  -0.952  1.00  0.00    +0.000 NA
ATOM     18  C   UNL     1      -1.306  -2.190   0.419  1.00  0.00    +0.000 C 
ATOM     19  C   UNL     1      -0.964  -1.067   1.422  1.00  0.00    +0.000 C 
ENDROOT
BRANCH   3  20
ATOM     20  O   UNL     1      -4.424   1.933  -0.153  1.00  0.00    +0.000 OA
ATOM     21  H   UNL     1      -4.502   2.880   0.048  1.00  0.00    +0.000 HD
ENDBRANCH   3  20
BRANCH  19  22
ATOM     22  O   UNL     1      -2.056  -0.841   2.317  1.00  0.00    +0.000 OA
ATOM     23  H   UNL     1      -2.258  -1.683   2.759  1.00  0.00    +0.000 HD
ENDBRANCH  19  22
TORSDOF 2
