REMARK  Name = /srv/my_project/app/compsite/backup/Dave/CORINA_stuff/newPDBs/SANC00649.pdb
AUTHORGENERATED BY OPEN BABEL 2.3.2
REMARK  5 active torsions:
REMARK  status: ('A' for Active; 'I' for Inactive)
REMARK    1  A    between atoms: C_1  and  C_2
REMARK    2  A    between atoms: C_6  and  C_16
REMARK    3  A    between atoms: C_6  and  C_17
REMARK    4  A    between atoms: C_10  and  C_14
REMARK    5  A    between atoms: C_11  and  C_12
REMARK                            x       y       z     vdW  Elec       q    Type
REMARK                         _______ _______ _______ _____ _____    ______ ____
ROOT
ATOM      1  C   UNL     1       0.508  -1.411  -1.397  1.00  0.00    +0.000 C 
ATOM      2  C   UNL     1       0.438   0.028  -0.830  1.00  0.00    +0.000 C 
ATOM      3  C   UNL     1      -0.381   0.937  -1.803  1.00  0.00    +0.000 C 
ATOM      4  C   UNL     1      -1.861   1.125  -1.454  1.00  0.00    +0.000 C 
ATOM      5  C   UNL     1      -2.464  -0.084  -0.756  1.00  0.00    +0.000 C 
ATOM      6  C   UNL     1      -1.769  -0.384   0.596  1.00  0.00    +0.000 C 
ATOM      7  C   UNL     1      -0.267   0.086   0.575  1.00  0.00    +0.000 C 
ATOM      8  C   UNL     1       0.602  -0.566   1.660  1.00  0.00    +0.000 C 
ATOM      9  C   UNL     1       1.941   0.154   1.787  1.00  0.00    +0.000 C 
ATOM     10  C   UNL     1       2.568   0.548   0.472  1.00  0.00    +0.000 C 
ATOM     11  C   UNL     1       1.907   0.511  -0.708  1.00  0.00    +0.000 C 
ATOM     12  C   UNL     1      -2.511   0.408   1.705  1.00  0.00    +0.000 C 
ATOM     13  C   UNL     1      -1.955  -1.879   0.930  1.00  0.00    +0.000 C 
ENDROOT
BRANCH  11  14
ATOM     14  C   UNL     1       2.587   0.968  -1.964  1.00  0.00    +0.000 C 
ATOM     15  O   UNL     1       2.240   0.624  -3.086  1.00  0.00    +0.000 OA
ENDBRANCH  11  14
BRANCH  10  16
ATOM     16  C   UNL     1       4.008   0.932   0.612  1.00  0.00    +0.000 C 
ATOM     17  O   UNL     1       4.519   1.178   1.698  1.00  0.00    +0.000 OA
ENDBRANCH  10  16
TORSDOF 2
