REMARK  Name = 
REMARK  14 active torsions:
REMARK  status: ('A' for Active; 'I' for Inactive)
REMARK    1  A    between atoms: C_1  and  C_2
REMARK    2  A    between atoms: C_2  and  C_14
REMARK    3  A    between atoms: C_3  and  C_4
REMARK    4  A    between atoms: C_4  and  C_5
REMARK    5  A    between atoms: C_9  and  C_10
REMARK    6  A    between atoms: C_14  and  C_15
REMARK    7  A    between atoms: C_15  and  C_16
REMARK    8  A    between atoms: C_17  and  C_18
REMARK    9  A    between atoms: C_17  and  C_19
REMARK   10  A    between atoms: C_19  and  C_20
REMARK   11  A    between atoms: C_20  and  C_22
REMARK   12  A    between atoms: C_22  and  C_23
REMARK   13  A    between atoms: C_23  and  C_24
REMARK   14  A    between atoms: C_23  and  C_25
REMARK                            x       y       z     vdW  Elec       q    Type
REMARK                         _______ _______ _______ _____ _____    ______ ____
ROOT
ATOM      1  C   UNL     1       3.053  -2.469  -1.463  1.00  0.00    +0.000 C 
ATOM      2  C   UNL     1       2.089  -1.709  -0.584  1.00  0.00    +0.000 C 
ATOM      3  C   UNL     1       2.376  -1.329   0.679  1.00  0.00    +0.000 C 
ENDROOT
BRANCH   3   4
ATOM      4  C   UNL     1       3.634  -1.612   1.464  1.00  0.00    +0.000 C 
BRANCH   4   5
ATOM      5  C   UNL     1       4.639  -0.486   1.482  1.00  0.00    +0.000 C 
ATOM      6  C   UNL     1       4.559   0.664   0.796  1.00  0.00    +0.000 C 
ATOM      7  C   UNL     1       5.590   1.718   0.868  1.00  0.00    +0.000 C 
ATOM      8  O   UNL     1       5.463   2.751   0.222  1.00  0.00    +0.000 OA
ATOM      9  C   UNL     1       6.764   1.474   1.741  1.00  0.00    +0.000 C 
ATOM     10  C   UNL     1       7.797   2.554   1.798  1.00  0.00    +0.000 C 
ATOM     11  C   UNL     1       6.854   0.329   2.427  1.00  0.00    +0.000 C 
ATOM     12  C   UNL     1       5.822  -0.724   2.355  1.00  0.00    +0.000 C 
ATOM     13  O   UNL     1       5.955  -1.755   3.004  1.00  0.00    +0.000 OA
ENDBRANCH   4   5
ENDBRANCH   3   4
BRANCH   2  14
ATOM     14  C   UNL     1       0.768  -1.410  -1.285  1.00  0.00    +0.000 C 
BRANCH  14  15
ATOM     15  C   UNL     1      -0.306  -0.651  -0.493  1.00  0.00    +0.000 C 
BRANCH  15  16
ATOM     16  C   UNL     1      -1.533  -0.398  -1.331  1.00  0.00    +0.000 C 
ATOM     17  C   UNL     1      -2.715  -1.043  -1.271  1.00  0.00    +0.000 C 
ATOM     18  C   UNL     1      -3.004  -2.217  -0.370  1.00  0.00    +0.000 C 
BRANCH  17  19
ATOM     19  C   UNL     1      -3.861  -0.636  -2.171  1.00  0.00    +0.000 C 
BRANCH  19  20
ATOM     20  C   UNL     1      -4.998  -0.026  -1.362  1.00  0.00    +0.000 C 
ATOM     21  O   UNL     1      -5.967  -0.710  -1.030  1.00  0.00    +0.000 OA
BRANCH  20  22
ATOM     22  C   UNL     1      -4.840   1.442  -0.981  1.00  0.00    +0.000 C 
BRANCH  22  23
ATOM     23  C   UNL     1      -5.969   2.075  -0.153  1.00  0.00    +0.000 C 
ATOM     24  C   UNL     1      -6.119   1.437   1.228  1.00  0.00    +0.000 C 
ATOM     25  C   UNL     1      -7.304   2.107  -0.897  1.00  0.00    +0.000 C 
ENDBRANCH  22  23
ENDBRANCH  20  22
ENDBRANCH  19  20
ENDBRANCH  17  19
ENDBRANCH  15  16
ENDBRANCH  14  15
ENDBRANCH   2  14
TORSDOF 9
