REMARK  Name = SANCDB_01120_minRM1.pdb
AUTHORGENERATED BY OPEN BABEL 2.3.2
REMARK  7 active torsions:
REMARK  status: ('A' for Active; 'I' for Inactive)
REMARK    1  A    between atoms: C_1  and  O_2
REMARK    2  A    between atoms: O_2  and  C_3
REMARK    3  A    between atoms: C_6  and  C_9
REMARK    4  A    between atoms: C_14  and  O_23
REMARK    5  A    between atoms: C_15  and  O_22
REMARK    6  A    between atoms: C_16  and  O_20
REMARK    7  A    between atoms: O_20  and  C_21
REMARK                            x       y       z     vdW  Elec       q    Type
REMARK                         _______ _______ _______ _____ _____    ______ ____
ROOT
ATOM      1  C   UNL     1       0.542  -0.916  -0.201  1.00  0.00    +0.000 A 
ATOM      2  C   UNL     1       0.244  -2.177  -0.547  1.00  0.00    +0.000 A 
ATOM      3  C   UNL     1      -1.167  -2.574  -0.639  1.00  0.00    +0.000 A 
ATOM      4  O   UNL     1      -1.501  -3.713  -0.947  1.00  0.00    +0.000 OA
ATOM      5  C   UNL     1      -2.170  -1.547  -0.345  1.00  0.00    +0.000 A 
ATOM      6  C   UNL     1      -3.535  -1.820  -0.400  1.00  0.00    +0.000 A 
ATOM      7  C   UNL     1      -4.452  -0.808  -0.110  1.00  0.00    +0.000 A 
ATOM      8  C   UNL     1      -4.028   0.481   0.237  1.00  0.00    +0.000 A 
ATOM      9  C   UNL     1      -2.655   0.743   0.287  1.00  0.00    +0.000 A 
ATOM     10  C   UNL     1      -1.733  -0.270  -0.003  1.00  0.00    +0.000 A 
ATOM     11  O   UNL     1      -0.402   0.064   0.066  1.00  0.00    +0.000 OA
ENDROOT
BRANCH   1  15
ATOM     12  C   UNL     1       4.596   0.489   0.088  1.00  0.00    +0.000 A 
ATOM     13  C   UNL     1       3.621   1.263  -0.536  1.00  0.00    +0.000 A 
ATOM     14  C   UNL     1       2.303   0.797  -0.627  1.00  0.00    +0.000 A 
ATOM     15  C   UNL     1       1.939  -0.451  -0.102  1.00  0.00    +0.000 A 
ATOM     16  C   UNL     1       2.925  -1.218   0.532  1.00  0.00    +0.000 A 
ATOM     17  C   UNL     1       4.240  -0.751   0.622  1.00  0.00    +0.000 A 
BRANCH  12  19
ATOM     18  C   UNL     1       6.327   2.075  -0.284  1.00  0.00    +0.000 C 
ATOM     19  O   UNL     1       5.913   0.822   0.245  1.00  0.00    +0.000 OA
ENDBRANCH  12  19
ENDBRANCH   1  15
BRANCH   8  20
ATOM     20  O   UNL     1      -5.013   1.394   0.500  1.00  0.00    +0.000 OA
ATOM     21  C   UNL     1      -4.614   2.704   0.879  1.00  0.00    +0.000 C 
ENDBRANCH   8  20
BRANCH   7  22
ATOM     22  O   UNL     1      -5.790  -1.106  -0.173  1.00  0.00    +0.000 OA
ATOM     23  H   UNL     1      -5.829  -2.049  -0.429  1.00  0.00    +0.000 HD
ENDBRANCH   7  22
BRANCH   6  24
ATOM     24  O   UNL     1      -4.048  -3.051  -0.729  1.00  0.00    +0.000 OA
ATOM     25  H   UNL     1      -3.289  -3.655  -0.905  1.00  0.00    +0.000 HD
ENDBRANCH   6  24
TORSDOF 5
