REMARK  Name = /srv/my_project/app/compsite/backup/Dave/CORINA_stuff/newPDBs/SANC00618.pdb
AUTHORGENERATED BY OPEN BABEL 2.3.2
REMARK  32 active torsions:
REMARK  status: ('A' for Active; 'I' for Inactive)
REMARK    1  A    between atoms: C_2  and  O_3
REMARK    2  A    between atoms: O_3  and  C_4
REMARK    3  A    between atoms: C_15  and  O_17
REMARK    4  A    between atoms: O_17  and  C_18
REMARK    5  A    between atoms: C_21  and  C_23
REMARK    6  A    between atoms: C_23  and  O_24
REMARK    7  A    between atoms: C_25  and  O_27
REMARK    8  A    between atoms: C_28  and  O_30
REMARK    9  A    between atoms: C_31  and  O_33
REMARK   10  A    between atoms: C_36  and  C_37
REMARK   11  A    between atoms: C_42  and  C_43
REMARK   12  A    between atoms: C_44  and  O_45
REMARK   13  A    between atoms: C_44  and  C_46
REMARK   14  A    between atoms: C_46  and  C_48
REMARK   15  A    between atoms: C_46  and  C_49
REMARK   16  A    between atoms: C_49  and  C_51
REMARK   17  A    between atoms: C_51  and  C_52
REMARK   18  A    between atoms: C_52  and  C_53
REMARK   19  A    between atoms: C_53  and  C_54
REMARK   20  A    between atoms: C_53  and  C_55
REMARK   21  A    between atoms: C_58  and  O_60
REMARK   22  A    between atoms: C_61  and  O_63
REMARK   23  A    between atoms: O_63  and  C_64
REMARK   24  A    between atoms: C_68  and  O_70
REMARK   25  A    between atoms: C_71  and  O_73
REMARK   26  A    between atoms: C_74  and  O_76
REMARK   27  A    between atoms: O_76  and  C_77
REMARK   28  A    between atoms: C_77  and  C_79
REMARK   29  A    between atoms: C_80  and  C_81
REMARK   30  A    between atoms: C_87  and  O_89
REMARK   31  A    between atoms: O_89  and  C_90
REMARK   32  A    between atoms: C_90  and  C_91
REMARK                            x       y       z     vdW  Elec       q    Type
REMARK                         _______ _______ _______ _____ _____    ______ ____
ROOT
ATOM      1  C   UNL     1       0.265   1.149  -0.215  1.00  0.00    +0.000 C 
ATOM      2  C   UNL     1      -0.970   0.670   0.584  1.00  0.00    +0.000 C 
ATOM      3  C   UNL     1      -2.061   0.498  -0.460  1.00  0.00    +0.000 C 
ATOM      4  C   UNL     1      -3.509   0.381   0.038  1.00  0.00    +0.000 C 
ATOM      5  C   UNL     1      -3.656  -0.810   1.000  1.00  0.00    +0.000 C 
ATOM      6  C   UNL     1      -5.073  -1.238   1.221  1.00  0.00    +0.000 C 
ATOM      7  C   UNL     1      -6.120  -0.835   0.478  1.00  0.00    +0.000 C 
ATOM      8  C   UNL     1      -7.518  -1.319   0.806  1.00  0.00    +0.000 C 
ATOM      9  C   UNL     1      -8.233  -1.897  -0.422  1.00  0.00    +0.000 C 
ATOM     10  C   UNL     1      -8.227  -0.872  -1.556  1.00  0.00    +0.000 C 
ATOM     11  C   UNL     1      -6.804  -0.449  -1.917  1.00  0.00    +0.000 C 
ATOM     12  C   UNL     1      -5.975   0.111  -0.723  1.00  0.00    +0.000 C 
ATOM     13  C   UNL     1      -6.536   1.493  -0.313  1.00  0.00    +0.000 C 
ATOM     14  C   UNL     1      -4.464   0.212  -1.175  1.00  0.00    +0.000 C 
ATOM     15  C   UNL     1      -4.203   1.269  -2.276  1.00  0.00    +0.000 C 
ATOM     16  C   UNL     1      -2.720   1.402  -2.664  1.00  0.00    +0.000 C 
ATOM     17  C   UNL     1      -1.818   1.673  -1.440  1.00  0.00    +0.000 C 
ATOM     18  C   UNL     1      -2.167   3.055  -0.832  1.00  0.00    +0.000 C 
ATOM     19  C   UNL     1      -0.264   1.533  -1.657  1.00  0.00    +0.000 C 
ENDROOT
BRANCH  19  20
ATOM     20  C   UNL     1       0.475   2.753  -2.283  1.00  0.00    +0.000 C 
ATOM     21  C   UNL     1       0.044   3.079  -3.713  1.00  0.00    +0.000 C 
BRANCH  20  22
ATOM     22  C   UNL     1       1.986   2.505  -2.308  1.00  0.00    +0.000 C 
ATOM     23  O   UNL     1       2.438   1.359  -2.393  1.00  0.00    +0.000 OA
BRANCH  22  24
ATOM     24  C   UNL     1       2.885   3.731  -2.217  1.00  0.00    +0.000 C 
BRANCH  24  25
ATOM     25  C   UNL     1       4.313   3.433  -2.673  1.00  0.00    +0.000 C 
BRANCH  25  26
ATOM     26  C   UNL     1       5.195   4.688  -2.790  1.00  0.00    +0.000 C 
ATOM     27  C   UNL     1       6.557   4.314  -3.381  1.00  0.00    +0.000 C 
ATOM     28  C   UNL     1       5.394   5.386  -1.444  1.00  0.00    +0.000 C 
ENDBRANCH  25  26
ENDBRANCH  24  25
ENDBRANCH  22  24
ENDBRANCH  20  22
ENDBRANCH  19  20
BRANCH  19  29
ATOM     29  O   UNL     1      -0.057   0.381  -2.508  1.00  0.00    +0.000 OA
ATOM     30  H   UNL     1       0.913   0.295  -2.638  1.00  0.00    +0.000 HD
ENDBRANCH  19  29
BRANCH   9  31
ATOM     31  O   UNL     1      -9.601  -2.184  -0.119  1.00  0.00    +0.000 OA
BRANCH  31  32
ATOM     32  C   UNL     1      -9.800  -3.481   0.456  1.00  0.00    +0.000 C 
ATOM     33  O   UNL     1      -9.565  -4.485  -0.525  1.00  0.00    +0.000 OA
ATOM     34  C   UNL     1      -9.598  -5.815   0.013  1.00  0.00    +0.000 C 
ATOM     35  C   UNL     1     -10.638  -5.998   1.147  1.00  0.00    +0.000 C 
ATOM     36  C   UNL     1     -11.795  -5.003   1.002  1.00  0.00    +0.000 C 
ATOM     37  C   UNL     1     -11.256  -3.557   0.990  1.00  0.00    +0.000 C 
BRANCH  37  38
ATOM     38  O   UNL     1     -11.300  -3.028   2.334  1.00  0.00    +0.000 OA
ATOM     39  H   UNL     1     -10.786  -3.647   2.890  1.00  0.00    +0.000 HD
ENDBRANCH  37  38
BRANCH  36  40
ATOM     40  O   UNL     1     -12.555  -5.281  -0.176  1.00  0.00    +0.000 OA
ATOM     41  H   UNL     1     -13.130  -6.040   0.022  1.00  0.00    +0.000 HD
ENDBRANCH  36  40
BRANCH  35  42
ATOM     42  O   UNL     1     -10.009  -5.746   2.422  1.00  0.00    +0.000 OA
ATOM     43  H   UNL     1      -9.407  -6.497   2.585  1.00  0.00    +0.000 HD
ENDBRANCH  35  42
BRANCH  34  44
ATOM     44  C   UNL     1      -9.850  -6.768  -1.161  1.00  0.00    +0.000 C 
BRANCH  44  45
ATOM     45  O   UNL     1      -9.793  -8.124  -0.730  1.00  0.00    +0.000 OA
ATOM     46  H   UNL     1      -9.848  -8.671  -1.535  1.00  0.00    +0.000 HD
ENDBRANCH  44  45
ENDBRANCH  34  44
ENDBRANCH  31  32
ENDBRANCH   9  31
BRANCH   1  47
ATOM     47  O   UNL     1       0.876   2.262   0.444  1.00  0.00    +0.000 OA
BRANCH  47  48
ATOM     48  C   UNL     1       1.587   1.898   1.634  1.00  0.00    +0.000 C 
ATOM     49  O   UNL     1       1.310   2.853   2.665  1.00  0.00    +0.000 OA
ATOM     50  C   UNL     1       2.071   4.048   2.522  1.00  0.00    +0.000 C 
ATOM     51  C   UNL     1       3.566   3.775   2.701  1.00  0.00    +0.000 C 
ATOM     52  C   UNL     1       3.900   2.282   2.522  1.00  0.00    +0.000 C 
ATOM     53  C   UNL     1       3.099   1.735   1.333  1.00  0.00    +0.000 C 
BRANCH  51  54
ATOM     54  O   UNL     1       4.290   4.559   1.741  1.00  0.00    +0.000 OA
ATOM     55  H   UNL     1       5.138   4.088   1.603  1.00  0.00    +0.000 HD
ENDBRANCH  51  54
BRANCH  53  56
ATOM     56  O   UNL     1       3.350   0.320   1.128  1.00  0.00    +0.000 OA
BRANCH  56  57
ATOM     57  C   UNL     1       4.360  -0.006   0.274  1.00  0.00    +0.000 C 
ATOM     58  C   UNL     1       4.353  -1.483   0.024  1.00  0.00    +0.000 C 
ATOM     59  O   UNL     1       5.168   0.769  -0.214  1.00  0.00    +0.000 OA
ENDBRANCH  56  57
ENDBRANCH  53  56
BRANCH  52  60
ATOM     60  O   UNL     1       5.313   2.187   2.266  1.00  0.00    +0.000 OA
BRANCH  60  61
ATOM     61  C   UNL     1       6.027   1.487   3.286  1.00  0.00    +0.000 C 
ATOM     62  O   UNL     1       6.041   2.249   4.494  1.00  0.00    +0.000 OA
ATOM     63  C   UNL     1       7.047   3.265   4.503  1.00  0.00    +0.000 C 
ATOM     64  C   UNL     1       8.453   2.658   4.467  1.00  0.00    +0.000 C 
ATOM     65  C   UNL     1       8.450   1.236   3.889  1.00  0.00    +0.000 C 
ATOM     66  C   UNL     1       7.438   1.147   2.744  1.00  0.00    +0.000 C 
BRANCH  65  67
ATOM     67  O   UNL     1       9.800   0.917   3.513  1.00  0.00    +0.000 OA
ATOM     68  H   UNL     1       9.878   0.961   2.535  1.00  0.00    +0.000 HD
ENDBRANCH  65  67
BRANCH  64  69
ATOM     69  O   UNL     1       9.016   2.610   5.784  1.00  0.00    +0.000 OA
ATOM     70  H   UNL     1       9.850   2.107   5.697  1.00  0.00    +0.000 HD
ENDBRANCH  64  69
BRANCH  66  71
ATOM     71  O   UNL     1       7.386  -0.189   2.184  1.00  0.00    +0.000 OA
BRANCH  71  72
ATOM     72  C   UNL     1       8.328  -0.466   1.250  1.00  0.00    +0.000 C 
ATOM     73  O   UNL     1       9.245   0.269   0.923  1.00  0.00    +0.000 OA
BRANCH  72  74
ATOM     74  C   UNL     1       8.064  -1.814   0.719  1.00  0.00    +0.000 C 
ATOM     75  C   UNL     1       8.761  -2.276  -0.329  1.00  0.00    +0.000 C 
BRANCH  75  76
ATOM     76  C   UNL     1       8.523  -3.595  -0.927  1.00  0.00    +0.000 A 
ATOM     77  C   UNL     1       8.327  -4.742  -0.147  1.00  0.00    +0.000 A 
ATOM     78  C   UNL     1       8.118  -5.984  -0.751  1.00  0.00    +0.000 A 
ATOM     79  C   UNL     1       8.111  -6.091  -2.141  1.00  0.00    +0.000 A 
ATOM     80  C   UNL     1       8.322  -4.959  -2.927  1.00  0.00    +0.000 A 
ATOM     81  C   UNL     1       8.532  -3.717  -2.322  1.00  0.00    +0.000 A 
ENDBRANCH  75  76
ENDBRANCH  72  74
ENDBRANCH  71  72
ENDBRANCH  66  71
ENDBRANCH  60  61
ENDBRANCH  52  60
ENDBRANCH  47  48
ENDBRANCH   1  47
TORSDOF 26
