REMARK  Name = /srv/my_project/app/compsite/backup/Dave/CORINA_stuff/newPDBs/SANC00498.pdb
AUTHORGENERATED BY OPEN BABEL 2.3.2
REMARK  21 active torsions:
REMARK  status: ('A' for Active; 'I' for Inactive)
REMARK    1  A    between atoms: C_2  and  O_3
REMARK    2  A    between atoms: O_3  and  C_4
REMARK    3  A    between atoms: C_6  and  O_8
REMARK    4  A    between atoms: C_9  and  O_11
REMARK    5  A    between atoms: C_12  and  C_14
REMARK    6  A    between atoms: C_14  and  O_15
REMARK    7  A    between atoms: C_17  and  O_19
REMARK    8  A    between atoms: O_19  and  C_20
REMARK    9  A    between atoms: C_23  and  C_24
REMARK   10  A    between atoms: C_34  and  C_35
REMARK   11  A    between atoms: C_35  and  O_36
REMARK   12  A    between atoms: C_43  and  O_45
REMARK   13  A    between atoms: C_46  and  C_48
REMARK   14  A    between atoms: C_48  and  C_49
REMARK   15  A    between atoms: C_49  and  C_50
REMARK   16  A    between atoms: C_49  and  C_51
REMARK   17  A    between atoms: C_52  and  C_54
REMARK   18  A    between atoms: C_59  and  C_61
REMARK   19  A    between atoms: C_62  and  O_64
REMARK   20  A    between atoms: C_65  and  O_67
REMARK   21  A    between atoms: C_68  and  O_70
REMARK                            x       y       z     vdW  Elec       q    Type
REMARK                         _______ _______ _______ _____ _____    ______ ____
ROOT
ATOM      1  C   UNL     1      -3.103  -0.138  -1.318  1.00  0.00    +0.000 C 
ATOM      2  C   UNL     1      -2.611   1.310  -1.342  1.00  0.00    +0.000 C 
ATOM      3  C   UNL     1      -1.085   1.386  -1.350  1.00  0.00    +0.000 C 
ATOM      4  C   UNL     1      -0.401   0.638  -0.169  1.00  0.00    +0.000 C 
ATOM      5  C   UNL     1      -0.683   1.395   1.151  1.00  0.00    +0.000 C 
ATOM      6  C   UNL     1      -1.005  -0.768  -0.049  1.00  0.00    +0.000 C 
ATOM      7  C   UNL     1      -0.255  -1.875   0.099  1.00  0.00    +0.000 C 
ATOM      8  C   UNL     1       1.238  -1.887   0.199  1.00  0.00    +0.000 C 
ATOM      9  C   UNL     1       1.850  -0.498   0.440  1.00  0.00    +0.000 C 
ATOM     10  C   UNL     1       1.150   0.556  -0.465  1.00  0.00    +0.000 C 
ATOM     11  C   UNL     1       1.872   1.930  -0.459  1.00  0.00    +0.000 C 
ATOM     12  C   UNL     1       3.404   1.843  -0.609  1.00  0.00    +0.000 C 
ATOM     13  C   UNL     1       4.036   0.866   0.408  1.00  0.00    +0.000 C 
ATOM     14  C   UNL     1       3.352  -0.500   0.140  1.00  0.00    +0.000 C 
ATOM     15  C   UNL     1       4.239  -1.518   0.836  1.00  0.00    +0.000 C 
ATOM     16  C   UNL     1       5.652  -1.020   0.505  1.00  0.00    +0.000 C 
ATOM     17  O   UNL     1       6.510  -1.236   1.606  1.00  0.00    +0.000 OA
ATOM     18  C   UNL     1       7.846  -0.805   1.402  1.00  0.00    +0.000 C 
ATOM     19  C   UNL     1       7.989   0.505   0.584  1.00  0.00    +0.000 C 
ATOM     20  C   UNL     1       6.675   1.331   0.708  1.00  0.00    +0.000 C 
ATOM     21  C   UNL     1       6.759   2.699   0.026  1.00  0.00    +0.000 C 
ATOM     22  C   UNL     1       5.525   0.481   0.111  1.00  0.00    +0.000 C 
ATOM     23  C   UNL     1      -2.515  -0.873  -0.107  1.00  0.00    +0.000 C 
ENDROOT
BRANCH  18  24
ATOM     24  O   UNL     1       8.588  -1.863   0.814  1.00  0.00    +0.000 OA
ATOM     25  H   UNL     1       8.296  -1.929  -0.107  1.00  0.00    +0.000 HD
ENDBRANCH  18  24
BRANCH  13  26
ATOM     26  C   UNL     1       3.832   1.441   1.841  1.00  0.00    +0.000 C 
BRANCH  26  27
ATOM     27  O   UNL     1       4.390   0.626   2.853  1.00  0.00    +0.000 OA
ATOM     28  H   UNL     1       4.212   1.049   3.709  1.00  0.00    +0.000 HD
ENDBRANCH  26  27
ENDBRANCH  13  26
BRANCH   1  29
ATOM     29  O   UNL     1      -4.529  -0.091  -1.230  1.00  0.00    +0.000 OA
BRANCH  29  35
ATOM     30  C   UNL     1      -6.583  -1.302  -1.128  1.00  0.00    +0.000 C 
ATOM     31  C   UNL     1      -7.440  -2.377  -1.789  1.00  0.00    +0.000 C 
ATOM     32  C   UNL     1      -7.382  -2.289  -3.315  1.00  0.00    +0.000 C 
ATOM     33  C   UNL     1      -5.918  -2.249  -3.781  1.00  0.00    +0.000 C 
ATOM     34  O   UNL     1      -5.222  -1.162  -3.167  1.00  0.00    +0.000 OA
ATOM     35  C   UNL     1      -5.173  -1.262  -1.744  1.00  0.00    +0.000 C 
BRANCH  32  36
ATOM     36  O   UNL     1      -8.102  -3.414  -3.833  1.00  0.00    +0.000 OA
ATOM     37  H   UNL     1      -7.819  -3.520  -4.769  1.00  0.00    +0.000 HD
ENDBRANCH  32  36
BRANCH  31  38
ATOM     38  O   UNL     1      -8.812  -2.222  -1.361  1.00  0.00    +0.000 OA
ATOM     39  H   UNL     1      -9.309  -2.864  -1.913  1.00  0.00    +0.000 HD
ENDBRANCH  31  38
BRANCH  33  40
ATOM     40  C   UNL     1      -5.819  -2.066  -5.302  1.00  0.00    +0.000 C 
BRANCH  40  41
ATOM     41  O   UNL     1      -6.537  -3.089  -5.988  1.00  0.00    +0.000 OA
ATOM     42  H   UNL     1      -6.346  -2.972  -6.938  1.00  0.00    +0.000 HD
ENDBRANCH  40  41
ENDBRANCH  33  40
BRANCH  30  43
ATOM     43  O   UNL     1      -6.475  -1.630   0.271  1.00  0.00    +0.000 OA
BRANCH  43  44
ATOM     44  C   UNL     1      -6.772  -0.532   1.132  1.00  0.00    +0.000 C 
ATOM     45  O   UNL     1      -5.909  -0.587   2.265  1.00  0.00    +0.000 OA
ATOM     46  C   UNL     1      -6.020   0.571   3.110  1.00  0.00    +0.000 C 
ATOM     47  C   UNL     1      -4.905   1.553   2.761  1.00  0.00    +0.000 C 
ATOM     48  C   UNL     1      -7.408   1.240   3.058  1.00  0.00    +0.000 C 
ATOM     49  C   UNL     1      -8.487   0.172   2.869  1.00  0.00    +0.000 C 
ATOM     50  C   UNL     1      -8.242  -0.653   1.595  1.00  0.00    +0.000 C 
BRANCH  50  51
ATOM     51  O   UNL     1      -9.154  -0.223   0.565  1.00  0.00    +0.000 OA
ATOM     52  H   UNL     1      -9.134  -0.935  -0.118  1.00  0.00    +0.000 HD
ENDBRANCH  50  51
BRANCH  49  53
ATOM     53  O   UNL     1      -9.776   0.809   2.840  1.00  0.00    +0.000 OA
ATOM     54  H   UNL     1     -10.086   0.701   1.913  1.00  0.00    +0.000 HD
ENDBRANCH  49  53
BRANCH  48  55
ATOM     55  O   UNL     1      -7.657   1.982   4.255  1.00  0.00    +0.000 OA
ATOM     56  H   UNL     1      -8.628   2.116   4.272  1.00  0.00    +0.000 HD
ENDBRANCH  48  55
ENDBRANCH  43  44
ENDBRANCH  30  43
ENDBRANCH  29  35
ENDBRANCH   1  29
BRANCH  19  57
ATOM     57  C   UNL     1       9.250   1.301   1.013  1.00  0.00    +0.000 C 
BRANCH  57  58
ATOM     58  C   UNL     1      10.599   0.556   0.927  1.00  0.00    +0.000 C 
ATOM     59  C   UNL     1      10.955   0.168  -0.509  1.00  0.00    +0.000 C 
ATOM     60  C   UNL     1      11.710   1.438   1.507  1.00  0.00    +0.000 C 
ENDBRANCH  57  58
ENDBRANCH  19  57
TORSDOF 16
