REMARK  Name = SANCDB_00777_minRM1.pdb
AUTHORGENERATED BY OPEN BABEL 2.3.2
REMARK  4 active torsions:
REMARK  status: ('A' for Active; 'I' for Inactive)
REMARK    1  A    between atoms: C_18  and  C_22
REMARK    2  A    between atoms: C_19  and  C_20
REMARK    3  A    between atoms: C_19  and  O_21
REMARK    4  A    between atoms: C_24  and  C_25
REMARK                            x       y       z     vdW  Elec       q    Type
REMARK                         _______ _______ _______ _____ _____    ______ ____
ROOT
ATOM      1  O   UNL     1      -1.839  -1.942   1.226  1.00  0.00    +0.000 OA
ATOM      2  C   UNL     1      -1.212  -1.639   0.221  1.00  0.00    +0.000 C 
ATOM      3  O   UNL     1       0.146  -1.706   0.093  1.00  0.00    +0.000 OA
ATOM      4  C   UNL     1       0.848  -1.989   1.306  1.00  0.00    +0.000 C 
ATOM      5  C   UNL     1       2.262  -1.562   1.106  1.00  0.00    +0.000 C 
ATOM      6  C   UNL     1       3.304  -2.345   0.803  1.00  0.00    +0.000 C 
ATOM      7  C   UNL     1       4.556  -1.546   0.736  1.00  0.00    +0.000 C 
ATOM      8  N   UNL     1       4.131  -0.131   0.787  1.00  0.00    +0.000 NA
ATOM      9  C   UNL     1       2.726  -0.141   1.318  1.00  0.00    +0.000 C 
ATOM     10  C   UNL     1       2.030   0.995   0.554  1.00  0.00    +0.000 C 
ATOM     11  C   UNL     1       2.605   0.837  -0.839  1.00  0.00    +0.000 C 
ATOM     12  C   UNL     1       4.058   0.476  -0.564  1.00  0.00    +0.000 C 
ATOM     13  O   UNL     1       0.610   0.881   0.618  1.00  0.00    +0.000 OA
ATOM     14  C   UNL     1      -0.109   1.919   0.130  1.00  0.00    +0.000 C 
ATOM     15  O   UNL     1       0.343   2.936  -0.378  1.00  0.00    +0.000 OA
ATOM     16  C   UNL     1      -1.573   1.703   0.293  1.00  0.00    +0.000 C 
ATOM     17  C   UNL     1      -2.405   1.321  -0.909  1.00  0.00    +0.000 C 
ATOM     18  C   UNL     1      -2.940  -0.138  -0.949  1.00  0.00    +0.000 C 
ATOM     19  C   UNL     1      -1.831  -1.224  -1.140  1.00  0.00    +0.000 C 
ATOM     20  C   UNL     1      -2.342  -2.542  -1.744  1.00  0.00    +0.000 C 
ATOM     21  C   UNL     1      -4.000  -0.187  -2.068  1.00  0.00    +0.000 C 
ATOM     22  O   UNL     1      -1.986   1.091   1.534  1.00  0.00    +0.000 OA
ATOM     23  C   UNL     1      -2.281   2.478   1.410  1.00  0.00    +0.000 C 
ATOM     24  C   UNL     1      -1.558   3.349   2.376  1.00  0.00    +0.000 C 
ENDROOT
BRANCH  19  25
ATOM     25  O   UNL     1      -0.856  -0.711  -2.058  1.00  0.00    +0.000 OA
ATOM     26  H   UNL     1      -0.038  -1.222  -1.900  1.00  0.00    +0.000 HD
ENDBRANCH  19  25
TORSDOF 1
