REMARK  Name = /srv/my_project/app/compsite/backup/Dave/CORINA_stuff/newPDBs/SANC00524.pdb
AUTHORGENERATED BY OPEN BABEL 2.3.2
REMARK  23 active torsions:
REMARK  status: ('A' for Active; 'I' for Inactive)
REMARK    1  A    between atoms: C_1  and  C_2
REMARK    2  A    between atoms: C_5  and  C_6
REMARK    3  A    between atoms: C_8  and  O_9
REMARK    4  A    between atoms: C_11  and  O_12
REMARK    5  A    between atoms: O_12  and  C_13
REMARK    6  A    between atoms: C_16  and  C_18
REMARK    7  A    between atoms: C_18  and  O_19
REMARK    8  A    between atoms: O_19  and  C_20
REMARK    9  A    between atoms: C_24  and  O_26
REMARK   10  A    between atoms: C_27  and  O_29
REMARK   11  A    between atoms: C_30  and  O_32
REMARK   12  A    between atoms: C_33  and  O_35
REMARK   13  A    between atoms: C_36  and  O_38
REMARK   14  A    between atoms: C_39  and  O_41
REMARK   15  A    between atoms: C_46  and  O_47
REMARK   16  A    between atoms: C_49  and  O_50
REMARK   17  A    between atoms: O_50  and  C_51
REMARK   18  A    between atoms: C_54  and  C_56
REMARK   19  A    between atoms: C_56  and  O_57
REMARK   20  A    between atoms: C_58  and  O_60
REMARK   21  A    between atoms: C_61  and  O_63
REMARK   22  A    between atoms: C_64  and  O_66
REMARK   23  A    between atoms: C_69  and  O_70
REMARK                            x       y       z     vdW  Elec       q    Type
REMARK                         _______ _______ _______ _____ _____    ______ ____
ROOT
ATOM      1  C   UNL     1      -4.024  -4.312   2.708  1.00  0.00    +0.000 C 
ATOM      2  C   UNL     1      -4.081  -3.361   1.546  1.00  0.00    +0.000 C 
ATOM      3  C   UNL     1      -3.048  -2.934   0.794  1.00  0.00    +0.000 C 
ATOM      4  C   UNL     1      -1.642  -3.385   0.966  1.00  0.00    +0.000 A 
ATOM      5  C   UNL     1      -1.216  -4.724   0.962  1.00  0.00    +0.000 A 
ATOM      6  C   UNL     1      -2.098  -5.887   0.598  1.00  0.00    +0.000 C 
ATOM      7  C   UNL     1       0.122  -4.998   1.269  1.00  0.00    +0.000 A 
ATOM      8  C   UNL     1       1.019  -3.965   1.528  1.00  0.00    +0.000 A 
ATOM      9  C   UNL     1       0.641  -2.605   1.451  1.00  0.00    +0.000 A 
ATOM     10  C   UNL     1       1.501  -1.501   1.707  1.00  0.00    +0.000 A 
ATOM     11  C   UNL     1       1.063  -0.185   1.524  1.00  0.00    +0.000 A 
ATOM     12  C   UNL     1      -0.240   0.063   1.110  1.00  0.00    +0.000 A 
ATOM     13  C   UNL     1      -1.106  -1.004   0.881  1.00  0.00    +0.000 A 
ATOM     14  O   UNL     1      -2.351  -0.665   0.397  1.00  0.00    +0.000 OA
ATOM     15  C   UNL     1      -3.118  -1.762  -0.163  1.00  0.00    +0.000 C 
ATOM     16  C   UNL     1      -4.512  -1.213  -0.406  1.00  0.00    +0.000 A 
ATOM     17  C   UNL     1      -4.730  -0.176  -1.346  1.00  0.00    +0.000 A 
ATOM     18  C   UNL     1      -6.015   0.319  -1.578  1.00  0.00    +0.000 A 
ATOM     19  C   UNL     1      -7.095  -0.183  -0.860  1.00  0.00    +0.000 A 
ATOM     20  C   UNL     1      -6.895  -1.188   0.079  1.00  0.00    +0.000 A 
ATOM     21  C   UNL     1      -5.611  -1.710   0.310  1.00  0.00    +0.000 A 
ATOM     22  C   UNL     1      -5.435  -2.785   1.308  1.00  0.00    +0.000 C 
ATOM     23  O   UNL     1      -6.412  -3.196   1.932  1.00  0.00    +0.000 OA
ATOM     24  C   UNL     1      -0.704  -2.334   1.100  1.00  0.00    +0.000 A 
ENDROOT
BRANCH  20  25
ATOM     25  O   UNL     1      -8.017  -1.623   0.732  1.00  0.00    +0.000 OA
ATOM     26  H   UNL     1      -7.748  -2.306   1.388  1.00  0.00    +0.000 HD
ENDBRANCH  20  25
BRANCH  15  27
ATOM     27  O   UNL     1      -2.558  -2.197  -1.408  1.00  0.00    +0.000 OA
ATOM     28  H   UNL     1      -2.946  -1.635  -2.100  1.00  0.00    +0.000 HD
ENDBRANCH  15  27
BRANCH   8  29
ATOM     29  O   UNL     1       2.305  -4.357   1.806  1.00  0.00    +0.000 OA
ATOM     30  H   UNL     1       2.860  -3.562   1.726  1.00  0.00    +0.000 HD
ENDBRANCH   8  29
BRANCH  17  31
ATOM     31  O   UNL     1      -3.619   0.238  -2.036  1.00  0.00    +0.000 OA
BRANCH  31  32
ATOM     32  C   UNL     1      -3.654   1.531  -2.673  1.00  0.00    +0.000 C 
ATOM     33  O   UNL     1      -4.259   1.411  -3.961  1.00  0.00    +0.000 OA
ATOM     34  C   UNL     1      -3.878   2.393  -4.948  1.00  0.00    +0.000 C 
ATOM     35  C   UNL     1      -3.283   3.670  -4.332  1.00  0.00    +0.000 C 
ATOM     36  C   UNL     1      -2.085   3.362  -3.422  1.00  0.00    +0.000 C 
ATOM     37  C   UNL     1      -2.188   1.981  -2.768  1.00  0.00    +0.000 C 
BRANCH  37  38
ATOM     38  O   UNL     1      -1.542   2.016  -1.483  1.00  0.00    +0.000 OA
ATOM     39  H   UNL     1      -1.764   1.165  -1.054  1.00  0.00    +0.000 HD
ENDBRANCH  37  38
BRANCH  36  40
ATOM     40  O   UNL     1      -0.869   3.417  -4.182  1.00  0.00    +0.000 OA
ATOM     41  H   UNL     1      -0.147   3.350  -3.527  1.00  0.00    +0.000 HD
ENDBRANCH  36  40
BRANCH  35  42
ATOM     42  O   UNL     1      -4.292   4.316  -3.533  1.00  0.00    +0.000 OA
ATOM     43  H   UNL     1      -5.046   4.522  -4.114  1.00  0.00    +0.000 HD
ENDBRANCH  35  42
BRANCH  34  44
ATOM     44  C   UNL     1      -2.946   1.761  -5.997  1.00  0.00    +0.000 C 
BRANCH  44  45
ATOM     45  O   UNL     1      -3.678   0.825  -6.788  1.00  0.00    +0.000 OA
ATOM     46  H   UNL     1      -3.043   0.397  -7.386  1.00  0.00    +0.000 HD
ENDBRANCH  44  45
ENDBRANCH  34  44
ENDBRANCH  31  32
ENDBRANCH  17  31
BRANCH  10  47
ATOM     47  O   UNL     1       2.797  -1.769   2.107  1.00  0.00    +0.000 OA
BRANCH  47  48
ATOM     48  C   UNL     1       3.234  -0.980   3.232  1.00  0.00    +0.000 C 
ATOM     49  O   UNL     1       3.881   0.222   2.823  1.00  0.00    +0.000 OA
ATOM     50  C   UNL     1       5.102   0.063   2.074  1.00  0.00    +0.000 C 
ATOM     51  C   UNL     1       5.913  -1.172   2.499  1.00  0.00    +0.000 C 
ATOM     52  C   UNL     1       5.621  -1.482   3.962  1.00  0.00    +0.000 C 
ATOM     53  C   UNL     1       4.147  -1.860   4.127  1.00  0.00    +0.000 C 
BRANCH  52  54
ATOM     54  O   UNL     1       6.460  -2.567   4.391  1.00  0.00    +0.000 OA
ATOM     55  H   UNL     1       6.210  -2.736   5.321  1.00  0.00    +0.000 HD
ENDBRANCH  52  54
BRANCH  53  56
ATOM     56  O   UNL     1       3.837  -1.740   5.527  1.00  0.00    +0.000 OA
ATOM     57  H   UNL     1       2.912  -2.018   5.651  1.00  0.00    +0.000 HD
ENDBRANCH  53  56
BRANCH  51  58
ATOM     58  O   UNL     1       7.309  -0.941   2.309  1.00  0.00    +0.000 OA
ATOM     59  H   UNL     1       7.762  -1.611   2.862  1.00  0.00    +0.000 HD
ENDBRANCH  51  58
BRANCH  50  60
ATOM     60  C   UNL     1       4.856   0.054   0.551  1.00  0.00    +0.000 C 
BRANCH  60  61
ATOM     61  O   UNL     1       3.995   1.108   0.108  1.00  0.00    +0.000 OA
BRANCH  61  62
ATOM     62  C   UNL     1       4.670   2.337  -0.162  1.00  0.00    +0.000 C 
ATOM     63  O   UNL     1       5.171   2.954   1.023  1.00  0.00    +0.000 OA
ATOM     64  C   UNL     1       4.214   3.797   1.671  1.00  0.00    +0.000 C 
ATOM     65  C   UNL     1       3.880   5.019   0.802  1.00  0.00    +0.000 C 
ATOM     66  C   UNL     1       4.036   4.693  -0.687  1.00  0.00    +0.000 C 
ATOM     67  C   UNL     1       3.677   3.234  -0.935  1.00  0.00    +0.000 C 
BRANCH  67  68
ATOM     68  O   UNL     1       3.691   2.965  -2.347  1.00  0.00    +0.000 OA
ATOM     69  H   UNL     1       3.512   2.008  -2.434  1.00  0.00    +0.000 HD
ENDBRANCH  67  68
BRANCH  66  70
ATOM     70  O   UNL     1       3.190   5.554  -1.462  1.00  0.00    +0.000 OA
ATOM     71  H   UNL     1       3.204   5.163  -2.362  1.00  0.00    +0.000 HD
ENDBRANCH  66  70
BRANCH  65  72
ATOM     72  O   UNL     1       4.748   6.112   1.124  1.00  0.00    +0.000 OA
ATOM     73  H   UNL     1       4.548   6.820   0.483  1.00  0.00    +0.000 HD
ENDBRANCH  65  72
ENDBRANCH  61  62
ENDBRANCH  60  61
ENDBRANCH  50  60
ENDBRANCH  47  48
ENDBRANCH  10  47
TORSDOF 21
