REMARK  Name = SANCDB_00856_minRM1.pdb
AUTHORGENERATED BY OPEN BABEL 2.3.2
REMARK  7 active torsions:
REMARK  status: ('A' for Active; 'I' for Inactive)
REMARK    1  A    between atoms: C_1  and  C_2
REMARK    2  A    between atoms: C_2  and  C_3
REMARK    3  A    between atoms: C_2  and  C_4
REMARK    4  A    between atoms: C_2  and  O_26
REMARK    5  A    between atoms: C_12  and  O_13
REMARK    6  A    between atoms: C_16  and  C_19
REMARK    7  A    between atoms: C_22  and  O_25
REMARK                            x       y       z     vdW  Elec       q    Type
REMARK                         _______ _______ _______ _____ _____    ______ ____
ROOT
ATOM      1  C   UNL     1      -3.987  -0.563   0.049  1.00  0.00    +0.000 C 
ATOM      2  C   UNL     1      -3.019  -0.106   1.158  1.00  0.00    +0.000 C 
ATOM      3  C   UNL     1      -1.744  -0.192   0.407  1.00  0.00    +0.000 A 
ATOM      4  C   UNL     1      -2.011  -0.316  -0.946  1.00  0.00    +0.000 A 
ATOM      5  O   UNL     1      -3.346  -0.376  -1.244  1.00  0.00    +0.000 OA
ATOM      6  C   UNL     1      -1.006  -0.354  -1.893  1.00  0.00    +0.000 A 
ATOM      7  C   UNL     1       0.314  -0.277  -1.444  1.00  0.00    +0.000 A 
ATOM      8  C   UNL     1       0.599  -0.156  -0.076  1.00  0.00    +0.000 A 
ATOM      9  C   UNL     1      -0.443  -0.107   0.862  1.00  0.00    +0.000 A 
ATOM     10  C   UNL     1       2.009  -0.072   0.344  1.00  0.00    +0.000 A 
ATOM     11  O   UNL     1       2.279   0.047   1.536  1.00  0.00    +0.000 OA
ATOM     12  C   UNL     1       3.043  -0.141  -0.725  1.00  0.00    +0.000 A 
ATOM     13  C   UNL     1       2.602  -0.250  -1.988  1.00  0.00    +0.000 A 
ATOM     14  O   UNL     1       1.294  -0.322  -2.403  1.00  0.00    +0.000 OA
ENDROOT
BRANCH  12  15
ATOM     15  C   UNL     1       4.487  -0.062  -0.435  1.00  0.00    +0.000 A 
ATOM     16  C   UNL     1       4.993   0.951   0.393  1.00  0.00    +0.000 A 
ATOM     17  C   UNL     1       6.361   1.035   0.670  1.00  0.00    +0.000 A 
ATOM     18  C   UNL     1       7.229   0.100   0.117  1.00  0.00    +0.000 A 
ATOM     19  C   UNL     1       6.751  -0.914  -0.702  1.00  0.00    +0.000 A 
ATOM     20  C   UNL     1       5.384  -0.998  -0.976  1.00  0.00    +0.000 A 
BRANCH  18  21
ATOM     21  O   UNL     1       8.569   0.143   0.360  1.00  0.00    +0.000 OA
ATOM     22  H   UNL     1       8.750   0.877   0.970  1.00  0.00    +0.000 HD
ENDBRANCH  18  21
ENDBRANCH  12  15
BRANCH   1  24
ATOM     23  C   UNL     1      -6.314  -0.533  -0.946  1.00  0.00    +0.000 C 
ATOM     24  C   UNL     1      -5.376   0.120   0.080  1.00  0.00    +0.000 C 
ATOM     25  C   UNL     1      -5.305   1.624  -0.210  1.00  0.00    +0.000 C 
BRANCH  24  26
ATOM     26  O   UNL     1      -5.962  -0.037   1.379  1.00  0.00    +0.000 OA
ATOM     27  H   UNL     1      -6.193  -0.975   1.499  1.00  0.00    +0.000 HD
ENDBRANCH  24  26
ENDBRANCH   1  24
BRANCH   9  28
ATOM     28  O   UNL     1      -0.240   0.023   2.206  1.00  0.00    +0.000 OA
ATOM     29  H   UNL     1       0.730   0.065   2.365  1.00  0.00    +0.000 HD
ENDBRANCH   9  28
TORSDOF 5
