REMARK  Name = SANCDB_00835_minRM1.pdb
AUTHORGENERATED BY OPEN BABEL 2.3.2
REMARK  22 active torsions:
REMARK  status: ('A' for Active; 'I' for Inactive)
REMARK    1  A    between atoms: C_1  and  C_2
REMARK    2  A    between atoms: C_5  and  O_33
REMARK    3  A    between atoms: C_6  and  C_31
REMARK    4  A    between atoms: C_6  and  C_32
REMARK    5  A    between atoms: C_10  and  C_30
REMARK    6  A    between atoms: C_15  and  C_29
REMARK    7  A    between atoms: C_18  and  C_26
REMARK    8  A    between atoms: C_21  and  C_24
REMARK    9  A    between atoms: C_21  and  C_25
REMARK   10  A    between atoms: C_26  and  O_28
REMARK   11  A    between atoms: O_33  and  C_34
REMARK   12  A    between atoms: C_35  and  O_56
REMARK   13  A    between atoms: C_36  and  O_44
REMARK   14  A    between atoms: C_37  and  O_43
REMARK   15  A    between atoms: C_38  and  C_40
REMARK   16  A    between atoms: C_40  and  O_42
REMARK   17  A    between atoms: O_44  and  C_45
REMARK   18  A    between atoms: C_46  and  O_55
REMARK   19  A    between atoms: C_47  and  O_54
REMARK   20  A    between atoms: C_48  and  O_53
REMARK   21  A    between atoms: C_49  and  C_51
REMARK   22  A    between atoms: C_51  and  O_52
REMARK                            x       y       z     vdW  Elec       q    Type
REMARK                         _______ _______ _______ _____ _____    ______ ____
ROOT
ATOM      1  C   UNL     1      -0.133  -0.845   0.825  1.00  0.00    +0.000 C 
ATOM      2  C   UNL     1      -0.877   0.485   0.552  1.00  0.00    +0.000 C 
ATOM      3  C   UNL     1      -0.192   1.151  -0.694  1.00  0.00    +0.000 C 
ATOM      4  C   UNL     1       0.700   2.359  -0.384  1.00  0.00    +0.000 C 
ATOM      5  C   UNL     1       1.560   2.173   0.867  1.00  0.00    +0.000 C 
ATOM      6  C   UNL     1       0.670   1.969   2.143  1.00  0.00    +0.000 C 
ATOM      7  C   UNL     1      -0.781   1.469   1.768  1.00  0.00    +0.000 C 
ATOM      8  C   UNL     1      -1.603   0.958   2.968  1.00  0.00    +0.000 C 
ATOM      9  C   UNL     1      -3.087   0.883   2.611  1.00  0.00    +0.000 C 
ATOM     10  C   UNL     1      -3.411  -0.037   1.403  1.00  0.00    +0.000 C 
ATOM     11  C   UNL     1      -2.422   0.265   0.212  1.00  0.00    +0.000 C 
ATOM     12  C   UNL     1      -2.685  -0.707  -0.960  1.00  0.00    +0.000 C 
ATOM     13  C   UNL     1      -4.136  -0.997  -1.212  1.00  0.00    +0.000 C 
ATOM     14  C   UNL     1      -5.168  -0.625  -0.427  1.00  0.00    +0.000 C 
ATOM     15  C   UNL     1      -4.940   0.196   0.861  1.00  0.00    +0.000 C 
ATOM     16  C   UNL     1      -5.971  -0.176   1.968  1.00  0.00    +0.000 C 
ATOM     17  C   UNL     1      -7.402  -0.405   1.468  1.00  0.00    +0.000 C 
ATOM     18  C   UNL     1      -7.463  -1.493   0.374  1.00  0.00    +0.000 C 
ATOM     19  C   UNL     1      -6.583  -1.065  -0.832  1.00  0.00    +0.000 C 
ATOM     20  C   UNL     1      -7.247  -0.001  -1.737  1.00  0.00    +0.000 C 
ATOM     21  C   UNL     1      -8.681  -0.352  -2.184  1.00  0.00    +0.000 C 
ATOM     22  C   UNL     1      -9.534  -0.664  -0.941  1.00  0.00    +0.000 C 
ATOM     23  C   UNL     1      -8.929  -1.752  -0.057  1.00  0.00    +0.000 C 
ATOM     24  C   UNL     1      -8.679  -1.537  -3.168  1.00  0.00    +0.000 C 
ATOM     25  C   UNL     1      -9.290   0.862  -2.912  1.00  0.00    +0.000 C 
ATOM     26  C   UNL     1      -5.200   1.688   0.489  1.00  0.00    +0.000 C 
ATOM     27  C   UNL     1      -3.255  -1.510   1.898  1.00  0.00    +0.000 C 
ATOM     28  C   UNL     1       1.378   1.070   3.180  1.00  0.00    +0.000 C 
ATOM     29  C   UNL     1       0.524   3.367   2.813  1.00  0.00    +0.000 C 
ENDROOT
BRANCH  18  30
ATOM     30  C   UNL     1      -6.971  -2.845   0.909  1.00  0.00    +0.000 C 
ATOM     31  O   UNL     1      -6.323  -3.686   0.307  1.00  0.00    +0.000 OA
BRANCH  30  32
ATOM     32  O   UNL     1      -7.399  -3.119   2.159  1.00  0.00    +0.000 OA
ATOM     33  H   UNL     1      -7.035  -4.012   2.334  1.00  0.00    +0.000 HD
ENDBRANCH  30  32
ENDBRANCH  18  30
BRANCH   5  34
ATOM     34  O   UNL     1       2.427   1.054   0.662  1.00  0.00    +0.000 OA
BRANCH  34  35
ATOM     35  C   UNL     1       3.783   1.419   0.353  1.00  0.00    +0.000 C 
ATOM     36  C   UNL     1       4.567   0.103   0.257  1.00  0.00    +0.000 C 
ATOM     37  C   UNL     1       6.059   0.380   0.032  1.00  0.00    +0.000 C 
ATOM     38  C   UNL     1       6.299   1.731  -0.670  1.00  0.00    +0.000 C 
ATOM     39  C   UNL     1       5.100   2.158  -1.530  1.00  0.00    +0.000 C 
ATOM     40  O   UNL     1       3.841   2.163  -0.855  1.00  0.00    +0.000 OA
BRANCH  39  41
ATOM     41  C   UNL     1       5.112   1.346  -2.827  1.00  0.00    +0.000 C 
ATOM     42  O   UNL     1       5.982   1.387  -3.685  1.00  0.00    +0.000 OA
BRANCH  41  43
ATOM     43  O   UNL     1       4.059   0.519  -2.974  1.00  0.00    +0.000 OA
ATOM     44  H   UNL     1       4.204   0.081  -3.838  1.00  0.00    +0.000 HD
ENDBRANCH  41  43
ENDBRANCH  39  41
BRANCH  38  45
ATOM     45  O   UNL     1       6.535   2.742   0.328  1.00  0.00    +0.000 OA
ATOM     46  H   UNL     1       7.405   2.545   0.724  1.00  0.00    +0.000 HD
ENDBRANCH  38  45
BRANCH  36  47
ATOM     47  O   UNL     1       4.401  -0.681   1.453  1.00  0.00    +0.000 OA
ATOM     48  H   UNL     1       3.434  -0.695   1.606  1.00  0.00    +0.000 HD
ENDBRANCH  36  47
BRANCH  37  49
ATOM     49  O   UNL     1       6.583  -0.688  -0.778  1.00  0.00    +0.000 OA
BRANCH  49  50
ATOM     50  C   UNL     1       7.899  -1.104  -0.364  1.00  0.00    +0.000 C 
ATOM     51  C   UNL     1       8.286  -2.276  -1.281  1.00  0.00    +0.000 C 
ATOM     52  C   UNL     1       9.669  -2.828  -0.908  1.00  0.00    +0.000 C 
ATOM     53  C   UNL     1      10.509  -1.831  -0.092  1.00  0.00    +0.000 C 
ATOM     54  C   UNL     1      10.203  -0.356  -0.420  1.00  0.00    +0.000 C 
ATOM     55  O   UNL     1       8.806  -0.017  -0.492  1.00  0.00    +0.000 OA
BRANCH  53  56
ATOM     56  O   UNL     1      10.234  -2.024   1.308  1.00  0.00    +0.000 OA
ATOM     57  H   UNL     1      10.511  -2.932   1.534  1.00  0.00    +0.000 HD
ENDBRANCH  53  56
BRANCH  52  58
ATOM     58  O   UNL     1      10.393  -3.224  -2.083  1.00  0.00    +0.000 OA
ATOM     59  H   UNL     1      10.452  -2.425  -2.653  1.00  0.00    +0.000 HD
ENDBRANCH  52  58
BRANCH  51  60
ATOM     60  O   UNL     1       7.303  -3.325  -1.196  1.00  0.00    +0.000 OA
ATOM     61  H   UNL     1       6.439  -2.876  -1.265  1.00  0.00    +0.000 HD
ENDBRANCH  51  60
BRANCH  54  62
ATOM     62  C   UNL     1      10.876   0.127  -1.716  1.00  0.00    +0.000 C 
BRANCH  62  63
ATOM     63  O   UNL     1      10.517  -0.682  -2.836  1.00  0.00    +0.000 OA
ATOM     64  H   UNL     1      10.705  -0.150  -3.633  1.00  0.00    +0.000 HD
ENDBRANCH  62  63
ENDBRANCH  54  62
ENDBRANCH  49  50
ENDBRANCH  37  49
ENDBRANCH  34  35
ENDBRANCH   5  34
TORSDOF 15
