REMARK  Name = SANCDB_00775_minRM1.pdb
AUTHORGENERATED BY OPEN BABEL 2.3.2
REMARK  6 active torsions:
REMARK  status: ('A' for Active; 'I' for Inactive)
REMARK    1  A    between atoms: C_1  and  C_2
REMARK    2  A    between atoms: C_5  and  C_6
REMARK    3  A    between atoms: C_6  and  C_7
REMARK    4  A    between atoms: C_11  and  C_12
REMARK    5  A    between atoms: C_11  and  C_13
REMARK    6  A    between atoms: C_15  and  O_16
REMARK                            x       y       z     vdW  Elec       q    Type
REMARK                         _______ _______ _______ _____ _____    ______ ____
ROOT
ATOM      1  C   UNL     1       4.877   0.260  -0.691  1.00  0.00    +0.000 C 
ATOM      2  C   UNL     1       3.420   0.076  -0.385  1.00  0.00    +0.000 A 
ATOM      3  C   UNL     1       2.577  -0.566  -1.292  1.00  0.00    +0.000 A 
ATOM      4  C   UNL     1       1.218  -0.742  -1.002  1.00  0.00    +0.000 A 
ATOM      5  C   UNL     1       0.648  -0.276   0.197  1.00  0.00    +0.000 A 
ATOM      6  C   UNL     1       1.517   0.345   1.112  1.00  0.00    +0.000 A 
ATOM      7  C   UNL     1       2.875   0.520   0.819  1.00  0.00    +0.000 A 
ENDROOT
BRANCH   5   8
ATOM      8  C   UNL     1      -0.850  -0.490   0.483  1.00  0.00    +0.000 C 
ATOM      9  C   UNL     1      -1.095  -2.023   0.544  1.00  0.00    +0.000 C 
ATOM     10  C   UNL     1      -1.325   0.104   1.841  1.00  0.00    +0.000 C 
ATOM     11  C   UNL     1      -2.842   0.222   1.752  1.00  0.00    +0.000 C 
ATOM     12  C   UNL     1      -3.183   0.246   0.265  1.00  0.00    +0.000 C 
ATOM     13  C   UNL     1      -1.839   0.251  -0.509  1.00  0.00    +0.000 C 
ATOM     14  C   UNL     1      -2.061  -0.418  -1.876  1.00  0.00    +0.000 C 
ATOM     15  C   UNL     1      -1.425   1.720  -0.773  1.00  0.00    +0.000 C 
ENDBRANCH   5   8
BRANCH   7  16
ATOM     16  O   UNL     1       3.700   1.132   1.722  1.00  0.00    +0.000 OA
ATOM     17  H   UNL     1       3.177   1.388   2.498  1.00  0.00    +0.000 HD
ENDBRANCH   7  16
TORSDOF 2
