REMARK  Name = SANCDB_00948_minRM1.pdb
AUTHORGENERATED BY OPEN BABEL 2.3.2
REMARK  3 active torsions:
REMARK  status: ('A' for Active; 'I' for Inactive)
REMARK    1  A    between atoms: C_3  and  O_10
REMARK    2  A    between atoms: C_6  and  C_7
REMARK    3  A    between atoms: C_7  and  O_9
REMARK                            x       y       z     vdW  Elec       q    Type
REMARK                         _______ _______ _______ _____ _____    ______ ____
ROOT
ATOM      1  C   UNL     1       0.227  -1.082   0.059  1.00  0.00    +0.000 A 
ATOM      2  C   UNL     1      -1.168  -1.155   0.121  1.00  0.00    +0.000 A 
ATOM      3  C   UNL     1      -1.916   0.018   0.088  1.00  0.00    +0.000 A 
ATOM      4  C   UNL     1      -1.296   1.260  -0.005  1.00  0.00    +0.000 A 
ATOM      5  C   UNL     1       0.097   1.334  -0.067  1.00  0.00    +0.000 A 
ATOM      6  C   UNL     1       0.865   0.163  -0.035  1.00  0.00    +0.000 A 
ENDROOT
BRANCH   6   7
ATOM      7  C   UNL     1       2.341   0.288  -0.103  1.00  0.00    +0.000 C 
ATOM      8  O   UNL     1       2.966   1.329  -0.186  1.00  0.00    +0.000 OA
BRANCH   7   9
ATOM      9  O   UNL     1       2.968  -0.901  -0.065  1.00  0.00    +0.000 OA
ATOM     10  H   UNL     1       3.918  -0.664  -0.117  1.00  0.00    +0.000 HD
ENDBRANCH   7   9
ENDBRANCH   6   7
BRANCH   3  11
ATOM     11  O   UNL     1      -3.277  -0.006   0.146  1.00  0.00    +0.000 OA
ATOM     12  H   UNL     1      -3.572  -0.930   0.209  1.00  0.00    +0.000 HD
ENDBRANCH   3  11
TORSDOF 3
