REMARK  Name = SANCDB_00969_minRM1.pdb
AUTHORGENERATED BY OPEN BABEL 2.3.2
REMARK  2 active torsions:
REMARK  status: ('A' for Active; 'I' for Inactive)
REMARK    1  A    between atoms: C_1  and  C_2
REMARK    2  A    between atoms: C_8  and  C_10
REMARK                            x       y       z     vdW  Elec       q    Type
REMARK                         _______ _______ _______ _____ _____    ______ ____
ROOT
ATOM      1  C   UNL     1      -4.583   1.039  -0.207  1.00  0.00    +0.000 C 
ATOM      2  C   UNL     1      -3.120   1.225  -0.532  1.00  0.00    +0.000 C 
ATOM      3  O   UNL     1      -2.775   2.148  -1.272  1.00  0.00    +0.000 OA
ATOM      4  N   UNL     1      -2.225   0.308   0.034  1.00  0.00    +0.000 N 
ATOM      5  C   UNL     1      -2.659  -0.792   0.910  1.00  0.00    +0.000 C 
ATOM      6  C   UNL     1      -1.688  -1.969   0.905  1.00  0.00    +0.000 C 
ATOM      7  C   UNL     1      -0.267  -1.509   1.217  1.00  0.00    +0.000 C 
ATOM      8  C   UNL     1       0.067  -0.274   0.445  1.00  0.00    +0.000 C 
ATOM      9  C   UNL     1      -0.857   0.531  -0.102  1.00  0.00    +0.000 C 
ENDROOT
BRANCH   8  10
ATOM     10  C   UNL     1       1.492   0.089   0.237  1.00  0.00    +0.000 C 
ATOM     11  N   UNL     1       1.944   1.230   0.650  1.00  0.00    +0.000 NA
ATOM     12  C   UNL     1       3.369   1.461   0.389  1.00  0.00    +0.000 C 
ATOM     13  C   UNL     1       3.692   1.168  -1.070  1.00  0.00    +0.000 C 
ATOM     14  C   UNL     1       3.275  -0.245  -1.478  1.00  0.00    +0.000 C 
ATOM     15  C   UNL     1       2.389  -0.926  -0.443  1.00  0.00    +0.000 C 
ENDBRANCH   8  10
TORSDOF 1
