REMARK  Name = SANCDB_00754_minRM1.pdb
AUTHORGENERATED BY OPEN BABEL 2.3.2
REMARK  9 active torsions:
REMARK  status: ('A' for Active; 'I' for Inactive)
REMARK    1  A    between atoms: C_1  and  O_2
REMARK    2  A    between atoms: O_2  and  C_3
REMARK    3  A    between atoms: C_3  and  N_4
REMARK    4  A    between atoms: C_7  and  O_8
REMARK    5  A    between atoms: O_8  and  C_9
REMARK    6  A    between atoms: C_10  and  O_23
REMARK    7  A    between atoms: C_11  and  O_21
REMARK    8  A    between atoms: O_21  and  C_22
REMARK    9  A    between atoms: O_23  and  C_24
REMARK                            x       y       z     vdW  Elec       q    Type
REMARK                         _______ _______ _______ _____ _____    ______ ____
ROOT
ATOM      1  N   UNL     1      -1.492  -0.199  -0.247  1.00  0.00    +0.000 N 
ATOM      2  C   UNL     1      -0.081  -0.111  -0.202  1.00  0.00    +0.000 A 
ATOM      3  C   UNL     1       0.749  -1.215  -0.493  1.00  0.00    +0.000 A 
ATOM      4  C   UNL     1       2.144  -1.130  -0.432  1.00  0.00    +0.000 A 
ATOM      5  C   UNL     1       2.728   0.082  -0.048  1.00  0.00    +0.000 A 
ATOM      6  C   UNL     1       1.937   1.202   0.238  1.00  0.00    +0.000 A 
ATOM      7  C   UNL     1       0.536   1.100   0.187  1.00  0.00    +0.000 A 
ATOM      8  C   UNL     1      -0.344   2.253   0.524  1.00  0.00    +0.000 A 
ATOM      9  O   UNL     1       0.079   3.400   0.625  1.00  0.00    +0.000 OA
ATOM     10  C   UNL     1      -1.788   2.006   0.729  1.00  0.00    +0.000 A 
ATOM     11  C   UNL     1      -2.330   0.772   0.337  1.00  0.00    +0.000 A 
ATOM     12  C   UNL     1      -3.699   0.568   0.583  1.00  0.00    +0.000 A 
ATOM     13  C   UNL     1      -4.496   1.567   1.156  1.00  0.00    +0.000 A 
ATOM     14  C   UNL     1      -3.941   2.793   1.504  1.00  0.00    +0.000 A 
ATOM     15  C   UNL     1      -2.584   3.014   1.294  1.00  0.00    +0.000 A 
ENDROOT
BRANCH   4  16
ATOM     16  O   UNL     1       3.007  -2.160  -0.701  1.00  0.00    +0.000 OA
ATOM     17  C   UNL     1       2.450  -3.407  -1.091  1.00  0.00    +0.000 C 
ENDBRANCH   4  16
BRANCH   6  18
ATOM     18  O   UNL     1       2.553   2.352   0.666  1.00  0.00    +0.000 OA
ATOM     19  C   UNL     1       2.973   3.136  -0.452  1.00  0.00    +0.000 C 
ENDBRANCH   6  18
BRANCH   5  20
ATOM     20  O   UNL     1       4.100   0.185  -0.001  1.00  0.00    +0.000 OA
ATOM     21  C   UNL     1       4.563  -0.107   1.318  1.00  0.00    +0.000 C 
ENDBRANCH   5  20
BRANCH   1  22
ATOM     22  C   UNL     1      -2.112  -1.258  -1.050  1.00  0.00    +0.000 C 
BRANCH  22  24
ATOM     23  C   UNL     1      -2.963  -3.451  -0.987  1.00  0.00    +0.000 C 
ATOM     24  O   UNL     1      -2.326  -2.418  -0.250  1.00  0.00    +0.000 OA
ENDBRANCH  22  24
ENDBRANCH   1  22
TORSDOF 5
