REMARK  Name = /srv/my_project/app/compsite/backup/Dave/CORINA_stuff/newPDBs/SANC00638.pdb
AUTHORGENERATED BY OPEN BABEL 2.3.2
REMARK  2 active torsions:
REMARK  status: ('A' for Active; 'I' for Inactive)
REMARK    1  A    between atoms: C_21  and  O_26
REMARK    2  A    between atoms: C_23  and  O_25
REMARK                            x       y       z     vdW  Elec       q    Type
REMARK                         _______ _______ _______ _____ _____    ______ ____
ROOT
ATOM      1  C   UNL     1       2.880  -1.511  -0.325  1.00  0.00    +0.000 A 
ATOM      2  C   UNL     1       1.526  -1.135  -0.343  1.00  0.00    +0.000 A 
ATOM      3  C   UNL     1       1.165   0.254  -0.274  1.00  0.00    +0.000 A 
ATOM      4  C   UNL     1       2.168   1.233  -0.216  1.00  0.00    +0.000 A 
ATOM      5  C   UNL     1       3.483   0.815  -0.205  1.00  0.00    +0.000 A 
ATOM      6  C   UNL     1       3.828  -0.514  -0.258  1.00  0.00    +0.000 A 
ATOM      7  O   UNL     1       5.175  -0.703  -0.234  1.00  0.00    +0.000 OA
ATOM      8  C   UNL     1       5.638   0.661  -0.157  1.00  0.00    +0.000 C 
ATOM      9  O   UNL     1       4.571   1.631  -0.148  1.00  0.00    +0.000 OA
ATOM     10  C   UNL     1      -0.314   0.617  -0.364  1.00  0.00    +0.000 C 
ATOM     11  C   UNL     1      -1.119  -0.546   0.228  1.00  0.00    +0.000 C 
ATOM     12  C   UNL     1      -2.637  -0.360   0.229  1.00  0.00    +0.000 C 
ATOM     13  C   UNL     1      -3.171  -1.679  -0.354  1.00  0.00    +0.000 C 
ATOM     14  C   UNL     1      -1.976  -2.632  -0.320  1.00  0.00    +0.000 C 
ATOM     15  N   UNL     1      -0.881  -1.720  -0.616  1.00  0.00    +0.000 NA
ATOM     16  C   UNL     1       0.464  -2.238  -0.359  1.00  0.00    +0.000 C 
ATOM     17  C   UNL     1      -3.080   0.883  -0.543  1.00  0.00    +0.000 C 
ATOM     18  C   UNL     1      -2.317   2.150  -0.112  1.00  0.00    +0.000 C 
ATOM     19  C   UNL     1      -0.828   1.914   0.276  1.00  0.00    +0.000 C 
ENDROOT
BRANCH  19  20
ATOM     20  O   UNL     1      -0.708   1.852   1.707  1.00  0.00    +0.000 OA
ATOM     21  H   UNL     1      -1.607   2.002   2.065  1.00  0.00    +0.000 HD
ENDBRANCH  19  20
BRANCH  18  22
ATOM     22  O   UNL     1      -2.995   2.747   1.002  1.00  0.00    +0.000 OA
ATOM     23  H   UNL     1      -2.671   3.664   1.071  1.00  0.00    +0.000 HD
ENDBRANCH  18  22
TORSDOF 2
