REMARK  Name = /srv/my_project/app/compsite/backup/Dave/CORINA_stuff/newPDBs/SANC00526.pdb
AUTHORGENERATED BY OPEN BABEL 2.3.2
REMARK  27 active torsions:
REMARK  status: ('A' for Active; 'I' for Inactive)
REMARK    1  A    between atoms: C_1  and  C_2
REMARK    2  A    between atoms: C_5  and  C_6
REMARK    3  A    between atoms: C_8  and  O_9
REMARK    4  A    between atoms: C_11  and  O_12
REMARK    5  A    between atoms: O_12  and  C_13
REMARK    6  A    between atoms: C_16  and  C_18
REMARK    7  A    between atoms: C_18  and  O_19
REMARK    8  A    between atoms: O_19  and  C_20
REMARK    9  A    between atoms: C_24  and  O_26
REMARK   10  A    between atoms: C_27  and  O_29
REMARK   11  A    between atoms: C_30  and  O_32
REMARK   12  A    between atoms: C_33  and  O_35
REMARK   13  A    between atoms: C_36  and  O_38
REMARK   14  A    between atoms: C_39  and  O_41
REMARK   15  A    between atoms: C_46  and  O_47
REMARK   16  A    between atoms: C_49  and  O_50
REMARK   17  A    between atoms: O_50  and  C_51
REMARK   18  A    between atoms: C_54  and  C_56
REMARK   19  A    between atoms: C_56  and  O_57
REMARK   20  A    between atoms: O_57  and  C_58
REMARK   21  A    between atoms: C_61  and  O_63
REMARK   22  A    between atoms: C_64  and  O_66
REMARK   23  A    between atoms: C_67  and  O_69
REMARK   24  A    between atoms: C_70  and  O_72
REMARK   25  A    between atoms: C_73  and  O_75
REMARK   26  A    between atoms: C_76  and  O_78
REMARK   27  A    between atoms: C_81  and  O_82
REMARK                            x       y       z     vdW  Elec       q    Type
REMARK                         _______ _______ _______ _____ _____    ______ ____
ROOT
ATOM      1  C   UNL     1       0.536  -5.024   3.188  1.00  0.00    +0.000 C 
ATOM      2  C   UNL     1      -0.378  -3.861   2.920  1.00  0.00    +0.000 C 
ATOM      3  C   UNL     1      -0.500  -3.170   1.768  1.00  0.00    +0.000 C 
ATOM      4  C   UNL     1       0.243  -3.481   0.518  1.00  0.00    +0.000 A 
ATOM      5  C   UNL     1       0.277  -4.737  -0.115  1.00  0.00    +0.000 A 
ATOM      6  C   UNL     1      -0.580  -5.904   0.295  1.00  0.00    +0.000 C 
ATOM      7  C   UNL     1       1.133  -4.915  -1.209  1.00  0.00    +0.000 A 
ATOM      8  C   UNL     1       1.897  -3.853  -1.699  1.00  0.00    +0.000 A 
ATOM      9  C   UNL     1       1.803  -2.551  -1.149  1.00  0.00    +0.000 A 
ATOM     10  C   UNL     1       2.520  -1.405  -1.596  1.00  0.00    +0.000 A 
ATOM     11  C   UNL     1       2.297  -0.135  -1.057  1.00  0.00    +0.000 A 
ATOM     12  C   UNL     1       1.370   0.030  -0.040  1.00  0.00    +0.000 A 
ATOM     13  C   UNL     1       0.676  -1.078   0.437  1.00  0.00    +0.000 A 
ATOM     14  O   UNL     1      -0.265  -0.807   1.404  1.00  0.00    +0.000 OA
ATOM     15  C   UNL     1      -1.233  -1.851   1.641  1.00  0.00    +0.000 C 
ATOM     16  C   UNL     1      -2.003  -1.419   2.875  1.00  0.00    +0.000 A 
ATOM     17  C   UNL     1      -2.772  -0.230   2.874  1.00  0.00    +0.000 A 
ATOM     18  C   UNL     1      -3.468   0.180   4.014  1.00  0.00    +0.000 A 
ATOM     19  C   UNL     1      -3.395  -0.575   5.180  1.00  0.00    +0.000 A 
ATOM     20  C   UNL     1      -2.639  -1.741   5.201  1.00  0.00    +0.000 A 
ATOM     21  C   UNL     1      -1.941  -2.169   4.058  1.00  0.00    +0.000 A 
ATOM     22  C   UNL     1      -1.143  -3.413   4.118  1.00  0.00    +0.000 C 
ATOM     23  O   UNL     1      -1.123  -4.064   5.161  1.00  0.00    +0.000 OA
ATOM     24  C   UNL     1       0.910  -2.374  -0.062  1.00  0.00    +0.000 A 
ENDROOT
BRANCH  15  25
ATOM     25  O   UNL     1      -2.148  -1.975   0.549  1.00  0.00    +0.000 OA
ATOM     26  H   UNL     1      -2.771  -1.237   0.639  1.00  0.00    +0.000 HD
ENDBRANCH  15  25
BRANCH  20  27
ATOM     27  O   UNL     1      -2.633  -2.421   6.390  1.00  0.00    +0.000 OA
ATOM     28  H   UNL     1      -2.067  -3.220   6.284  1.00  0.00    +0.000 HD
ENDBRANCH  20  27
BRANCH   8  29
ATOM     29  O   UNL     1       2.723  -4.093  -2.767  1.00  0.00    +0.000 OA
ATOM     30  H   UNL     1       2.689  -5.041  -2.986  1.00  0.00    +0.000 HD
ENDBRANCH   8  29
BRANCH  17  31
ATOM     31  O   UNL     1      -2.871   0.433   1.674  1.00  0.00    +0.000 OA
BRANCH  31  32
ATOM     32  C   UNL     1      -2.895   1.871   1.744  1.00  0.00    +0.000 C 
ATOM     33  O   UNL     1      -4.238   2.361   1.859  1.00  0.00    +0.000 OA
ATOM     34  C   UNL     1      -5.106   2.070   0.749  1.00  0.00    +0.000 C 
ATOM     35  C   UNL     1      -4.381   1.985  -0.610  1.00  0.00    +0.000 C 
ATOM     36  C   UNL     1      -3.174   2.914  -0.560  1.00  0.00    +0.000 C 
ATOM     37  C   UNL     1      -2.175   2.426   0.489  1.00  0.00    +0.000 C 
BRANCH  37  38
ATOM     38  O   UNL     1      -1.302   3.524   0.818  1.00  0.00    +0.000 OA
ATOM     39  H   UNL     1      -0.992   3.869  -0.043  1.00  0.00    +0.000 HD
ENDBRANCH  37  38
BRANCH  36  40
ATOM     40  O   UNL     1      -2.525   2.969  -1.840  1.00  0.00    +0.000 OA
ATOM     41  H   UNL     1      -3.264   3.007  -2.485  1.00  0.00    +0.000 HD
ENDBRANCH  36  40
BRANCH  35  42
ATOM     42  O   UNL     1      -5.213   2.399  -1.702  1.00  0.00    +0.000 OA
ATOM     43  H   UNL     1      -5.981   1.784  -1.737  1.00  0.00    +0.000 HD
ENDBRANCH  35  42
BRANCH  34  44
ATOM     44  C   UNL     1      -5.954   0.818   1.037  1.00  0.00    +0.000 C 
BRANCH  44  45
ATOM     45  O   UNL     1      -6.734   0.447  -0.092  1.00  0.00    +0.000 OA
BRANCH  45  46
ATOM     46  C   UNL     1      -8.072   0.944  -0.076  1.00  0.00    +0.000 C 
ATOM     47  O   UNL     1      -8.150   2.325   0.271  1.00  0.00    +0.000 OA
ATOM     48  C   UNL     1      -9.495   2.738   0.537  1.00  0.00    +0.000 C 
ATOM     49  C   UNL     1     -10.530   2.085  -0.392  1.00  0.00    +0.000 C 
ATOM     50  C   UNL     1      -9.876   1.675  -1.710  1.00  0.00    +0.000 C 
ATOM     51  C   UNL     1      -8.681   0.739  -1.485  1.00  0.00    +0.000 C 
BRANCH  51  52
ATOM     52  O   UNL     1      -7.707   1.024  -2.516  1.00  0.00    +0.000 OA
ATOM     53  H   UNL     1      -8.152   0.825  -3.363  1.00  0.00    +0.000 HD
ENDBRANCH  51  52
BRANCH  50  54
ATOM     54  O   UNL     1     -10.831   1.030  -2.564  1.00  0.00    +0.000 OA
ATOM     55  H   UNL     1     -11.668   1.525  -2.459  1.00  0.00    +0.000 HD
ENDBRANCH  50  54
BRANCH  49  56
ATOM     56  O   UNL     1     -11.635   2.957  -0.650  1.00  0.00    +0.000 OA
ATOM     57  H   UNL     1     -11.288   3.796  -1.004  1.00  0.00    +0.000 HD
ENDBRANCH  49  56
ENDBRANCH  45  46
ENDBRANCH  44  45
ENDBRANCH  34  44
ENDBRANCH  31  32
ENDBRANCH  17  31
BRANCH  10  58
ATOM     58  O   UNL     1       3.424  -1.475  -2.630  1.00  0.00    +0.000 OA
BRANCH  58  59
ATOM     59  C   UNL     1       4.757  -1.739  -2.135  1.00  0.00    +0.000 C 
ATOM     60  O   UNL     1       5.311  -0.557  -1.544  1.00  0.00    +0.000 OA
ATOM     61  C   UNL     1       6.747  -0.492  -1.457  1.00  0.00    +0.000 C 
ATOM     62  C   UNL     1       7.447  -1.847  -1.657  1.00  0.00    +0.000 C 
ATOM     63  C   UNL     1       7.013  -2.535  -2.956  1.00  0.00    +0.000 C 
ATOM     64  C   UNL     1       5.577  -2.180  -3.361  1.00  0.00    +0.000 C 
BRANCH  64  65
ATOM     65  O   UNL     1       5.006  -3.306  -4.051  1.00  0.00    +0.000 OA
ATOM     66  H   UNL     1       4.041  -3.263  -3.863  1.00  0.00    +0.000 HD
ENDBRANCH  64  65
BRANCH  63  67
ATOM     67  O   UNL     1       7.901  -2.168  -4.024  1.00  0.00    +0.000 OA
ATOM     68  H   UNL     1       7.609  -2.691  -4.796  1.00  0.00    +0.000 HD
ENDBRANCH  63  67
BRANCH  62  69
ATOM     69  O   UNL     1       7.111  -2.717  -0.561  1.00  0.00    +0.000 OA
ATOM     70  H   UNL     1       7.399  -2.281   0.262  1.00  0.00    +0.000 HD
ENDBRANCH  62  69
BRANCH  61  71
ATOM     71  C   UNL     1       7.274   0.578  -2.435  1.00  0.00    +0.000 C 
BRANCH  71  72
ATOM     72  O   UNL     1       6.782   1.883  -2.098  1.00  0.00    +0.000 OA
BRANCH  72  73
ATOM     73  C   UNL     1       7.695   2.648  -1.307  1.00  0.00    +0.000 C 
ATOM     74  O   UNL     1       7.982   2.028  -0.052  1.00  0.00    +0.000 OA
ATOM     75  C   UNL     1       7.062   2.391   0.982  1.00  0.00    +0.000 C 
ATOM     76  C   UNL     1       7.150   3.886   1.317  1.00  0.00    +0.000 C 
ATOM     77  C   UNL     1       7.624   4.704   0.111  1.00  0.00    +0.000 C 
ATOM     78  C   UNL     1       7.101   4.072  -1.171  1.00  0.00    +0.000 C 
BRANCH  78  79
ATOM     79  O   UNL     1       7.445   4.902  -2.293  1.00  0.00    +0.000 OA
ATOM     80  H   UNL     1       7.094   4.444  -3.082  1.00  0.00    +0.000 HD
ENDBRANCH  78  79
BRANCH  77  81
ATOM     81  O   UNL     1       7.155   6.054   0.238  1.00  0.00    +0.000 OA
ATOM     82  H   UNL     1       7.278   6.447  -0.651  1.00  0.00    +0.000 HD
ENDBRANCH  77  81
BRANCH  76  83
ATOM     83  O   UNL     1       8.060   4.105   2.404  1.00  0.00    +0.000 OA
ATOM     84  H   UNL     1       8.098   5.073   2.525  1.00  0.00    +0.000 HD
ENDBRANCH  76  83
ENDBRANCH  72  73
ENDBRANCH  71  72
ENDBRANCH  61  71
ENDBRANCH  58  59
ENDBRANCH  10  58
TORSDOF 25
