REMARK  Name = SANCDB_01067_minRM1.pdb
AUTHORGENERATED BY OPEN BABEL 2.3.2
REMARK  23 active torsions:
REMARK  status: ('A' for Active; 'I' for Inactive)
REMARK    1  A    between atoms: C_1  and  C_2
REMARK    2  A    between atoms: C_3  and  O_46
REMARK    3  A    between atoms: C_4  and  O_45
REMARK    4  A    between atoms: C_5  and  O_44
REMARK    5  A    between atoms: C_6  and  O_8
REMARK    6  A    between atoms: O_8  and  C_9
REMARK    7  A    between atoms: C_10  and  O_43
REMARK    8  A    between atoms: C_11  and  O_31
REMARK    9  A    between atoms: C_13  and  C_29
REMARK   10  A    between atoms: C_14  and  O_15
REMARK   11  A    between atoms: O_15  and  C_16
REMARK   12  A    between atoms: C_16  and  C_18
REMARK   13  A    between atoms: C_19  and  C_20
REMARK   14  A    between atoms: C_22  and  O_27
REMARK   15  A    between atoms: C_23  and  O_26
REMARK   16  A    between atoms: O_27  and  C_28
REMARK   17  A    between atoms: C_29  and  O_30
REMARK   18  A    between atoms: O_31  and  C_32
REMARK   19  A    between atoms: C_32  and  C_33
REMARK   20  A    between atoms: C_33  and  C_34
REMARK   21  A    between atoms: C_36  and  O_42
REMARK   22  A    between atoms: C_37  and  O_40
REMARK   23  A    between atoms: O_40  and  C_41
REMARK                            x       y       z     vdW  Elec       q    Type
REMARK                         _______ _______ _______ _____ _____    ______ ____
ROOT
ATOM      1  C   UNL     1       0.578  -2.057  -0.372  1.00  0.00    +0.000 C 
ATOM      2  C   UNL     1       1.753  -2.933   0.088  1.00  0.00    +0.000 C 
ATOM      3  C   UNL     1       3.125  -2.337  -0.307  1.00  0.00    +0.000 C 
ATOM      4  O   UNL     1       3.059  -1.541  -1.489  1.00  0.00    +0.000 OA
ATOM      5  C   UNL     1       2.134  -0.436  -1.441  1.00  0.00    +0.000 C 
ATOM      6  C   UNL     1       0.995  -0.584  -0.421  1.00  0.00    +0.000 C 
ENDROOT
BRANCH   2   7
ATOM      7  O   UNL     1       1.601  -4.242  -0.498  1.00  0.00    +0.000 OA
ATOM      8  H   UNL     1       1.057  -4.763   0.135  1.00  0.00    +0.000 HD
ENDBRANCH   2   7
BRANCH   3   9
ATOM      9  O   UNL     1       3.643  -1.595   0.797  1.00  0.00    +0.000 OA
BRANCH   9  10
ATOM     10  C   UNL     1       5.054  -1.382   0.703  1.00  0.00    +0.000 C 
BRANCH  10  11
ATOM     11  C   UNL     1       5.564  -0.715   1.983  1.00  0.00    +0.000 C 
BRANCH  11  12
ATOM     12  C   UNL     1       5.040   0.690   2.158  1.00  0.00    +0.000 A 
ATOM     13  C   UNL     1       3.910   0.926   2.951  1.00  0.00    +0.000 A 
ATOM     14  C   UNL     1       3.404   2.215   3.063  1.00  0.00    +0.000 A 
ATOM     15  C   UNL     1       3.991   3.295   2.396  1.00  0.00    +0.000 A 
ATOM     16  C   UNL     1       5.122   3.065   1.614  1.00  0.00    +0.000 A 
ATOM     17  C   UNL     1       5.643   1.770   1.497  1.00  0.00    +0.000 A 
BRANCH  14  18
ATOM     18  O   UNL     1       2.293   2.405   3.841  1.00  0.00    +0.000 OA
ATOM     19  H   UNL     1       2.050   3.340   3.696  1.00  0.00    +0.000 HD
ENDBRANCH  14  18
BRANCH  15  20
ATOM     20  O   UNL     1       3.373   4.504   2.591  1.00  0.00    +0.000 OA
ATOM     21  C   UNL     1       3.857   5.594   1.815  1.00  0.00    +0.000 C 
ENDBRANCH  15  20
ENDBRANCH  11  12
ENDBRANCH  10  11
ENDBRANCH   9  10
ENDBRANCH   3   9
BRANCH   5  22
ATOM     22  C   UNL     1       2.922   0.868  -1.267  1.00  0.00    +0.000 C 
BRANCH  22  23
ATOM     23  O   UNL     1       3.954   0.938  -2.257  1.00  0.00    +0.000 OA
ATOM     24  H   UNL     1       4.306   0.030  -2.328  1.00  0.00    +0.000 HD
ENDBRANCH  22  23
ENDBRANCH   5  22
BRANCH   6  25
ATOM     25  O   UNL     1      -0.153   0.178  -0.871  1.00  0.00    +0.000 OA
BRANCH  25  26
ATOM     26  C   UNL     1      -0.354   1.379  -0.280  1.00  0.00    +0.000 C 
ATOM     27  O   UNL     1       0.390   1.939   0.505  1.00  0.00    +0.000 OA
BRANCH  26  28
ATOM     28  C   UNL     1      -1.633   1.920  -0.781  1.00  0.00    +0.000 C 
ATOM     29  C   UNL     1      -2.049   3.130  -0.378  1.00  0.00    +0.000 C 
BRANCH  29  30
ATOM     30  C   UNL     1      -3.313   3.739  -0.810  1.00  0.00    +0.000 A 
ATOM     31  C   UNL     1      -3.745   3.687  -2.147  1.00  0.00    +0.000 A 
ATOM     32  C   UNL     1      -4.941   4.300  -2.528  1.00  0.00    +0.000 A 
ATOM     33  C   UNL     1      -5.694   4.971  -1.559  1.00  0.00    +0.000 A 
ATOM     34  C   UNL     1      -5.276   5.047  -0.237  1.00  0.00    +0.000 A 
ATOM     35  C   UNL     1      -4.080   4.434   0.135  1.00  0.00    +0.000 A 
BRANCH  32  36
ATOM     36  O   UNL     1      -5.476   4.320  -3.791  1.00  0.00    +0.000 OA
ATOM     37  C   UNL     1      -4.726   3.673  -4.812  1.00  0.00    +0.000 C 
ENDBRANCH  32  36
BRANCH  33  38
ATOM     38  O   UNL     1      -6.870   5.581  -1.901  1.00  0.00    +0.000 OA
ATOM     39  H   UNL     1      -6.970   5.416  -2.858  1.00  0.00    +0.000 HD
ENDBRANCH  33  38
ENDBRANCH  29  30
ENDBRANCH  26  28
ENDBRANCH  25  26
ENDBRANCH   6  25
BRANCH   1  40
ATOM     40  O   UNL     1      -0.531  -2.183   0.541  1.00  0.00    +0.000 OA
BRANCH  40  46
ATOM     41  C   UNL     1      -3.752  -4.036  -1.686  1.00  0.00    +0.000 C 
ATOM     42  C   UNL     1      -3.632  -3.920  -0.170  1.00  0.00    +0.000 C 
ATOM     43  C   UNL     1      -3.291  -5.274   0.484  1.00  0.00    +0.000 C 
ATOM     44  C   UNL     1      -2.540  -5.023   1.792  1.00  0.00    +0.000 C 
ATOM     45  C   UNL     1      -1.227  -4.282   1.520  1.00  0.00    +0.000 C 
ATOM     46  C   UNL     1      -1.358  -3.325   0.314  1.00  0.00    +0.000 C 
ATOM     47  O   UNL     1      -2.705  -2.879   0.163  1.00  0.00    +0.000 OA
BRANCH  43  48
ATOM     48  O   UNL     1      -4.470  -6.035   0.772  1.00  0.00    +0.000 OA
ATOM     49  H   UNL     1      -4.923  -6.215  -0.071  1.00  0.00    +0.000 HD
ENDBRANCH  43  48
BRANCH  44  50
ATOM     50  O   UNL     1      -2.252  -6.273   2.443  1.00  0.00    +0.000 OA
ATOM     51  H   UNL     1      -3.106  -6.753   2.441  1.00  0.00    +0.000 HD
ENDBRANCH  44  50
BRANCH  45  52
ATOM     52  O   UNL     1      -0.182  -5.250   1.255  1.00  0.00    +0.000 OA
ATOM     53  H   UNL     1      -0.402  -5.996   1.860  1.00  0.00    +0.000 HD
ENDBRANCH  45  52
ENDBRANCH  40  46
ENDBRANCH   1  40
TORSDOF 20
