REMARK  Name = /srv/my_project/app/compsite/backup/Dave/CORINA_stuff/newPDBs/SANC00338.pdb
AUTHORGENERATED BY OPEN BABEL 2.3.2
REMARK  3 active torsions:
REMARK  status: ('A' for Active; 'I' for Inactive)
REMARK    1  A    between atoms: C_6  and  O_8
REMARK    2  A    between atoms: C_15  and  O_16
REMARK    3  A    between atoms: O_16  and  C_17
REMARK                            x       y       z     vdW  Elec       q    Type
REMARK                         _______ _______ _______ _____ _____    ______ ____
ROOT
ATOM      1  C   UNL     1      -1.977   0.888  -0.029  1.00  0.00    +0.000 C 
ATOM      2  C   UNL     1      -3.499   1.050   0.219  1.00  0.00    +0.000 C 
ATOM      3  C   UNL     1      -4.280  -0.226   0.144  1.00  0.00    +0.000 C 
ATOM      4  C   UNL     1      -3.710  -1.435   0.073  1.00  0.00    +0.000 C 
ATOM      5  C   UNL     1      -2.228  -1.660   0.041  1.00  0.00    +0.000 C 
ATOM      6  C   UNL     1      -1.367  -0.441   0.474  1.00  0.00    +0.000 C 
ATOM      7  C   UNL     1      -1.374  -0.193   1.997  1.00  0.00    +0.000 C 
ATOM      8  C   UNL     1      -1.140   1.318   2.130  1.00  0.00    +0.000 C 
ATOM      9  N   UNL     1      -1.224   1.896   0.764  1.00  0.00    +0.000 NA
ATOM     10  C   UNL     1       0.133   2.026   0.177  1.00  0.00    +0.000 C 
ATOM     11  C   UNL     1       0.848   0.706  -0.073  1.00  0.00    +0.000 A 
ATOM     12  C   UNL     1       2.212   0.709  -0.444  1.00  0.00    +0.000 A 
ATOM     13  C   UNL     1       2.821  -0.520  -0.640  1.00  0.00    +0.000 A 
ATOM     14  O   UNL     1       4.118  -0.762  -0.989  1.00  0.00    +0.000 OA
ATOM     15  C   UNL     1       4.147  -2.200  -1.036  1.00  0.00    +0.000 C 
ATOM     16  O   UNL     1       2.887  -2.804  -0.703  1.00  0.00    +0.000 OA
ATOM     17  C   UNL     1       2.123  -1.698  -0.481  1.00  0.00    +0.000 A 
ATOM     18  C   UNL     1       0.789  -1.734  -0.133  1.00  0.00    +0.000 A 
ATOM     19  C   UNL     1       0.120  -0.517   0.056  1.00  0.00    +0.000 A 
ENDROOT
BRANCH   5  20
ATOM     20  O   UNL     1      -1.959  -2.063  -1.304  1.00  0.00    +0.000 OA
ATOM     21  H   UNL     1      -2.154  -1.306  -1.881  1.00  0.00    +0.000 HD
ENDBRANCH   5  20
BRANCH  12  22
ATOM     22  O   UNL     1       2.785   1.944  -0.565  1.00  0.00    +0.000 OA
ATOM     23  C   UNL     1       4.151   2.008  -0.951  1.00  0.00    +0.000 C 
ENDBRANCH  12  22
TORSDOF 2
