REMARK  Name = /srv/my_project/app/compsite/backup/Dave/CORINA_stuff/newPDBs/SANC00228.pdb
AUTHORGENERATED BY OPEN BABEL 2.3.2
REMARK  16 active torsions:
REMARK  status: ('A' for Active; 'I' for Inactive)
REMARK    1  A    between atoms: C_1  and  C_2
REMARK    2  A    between atoms: C_3  and  C_26
REMARK    3  A    between atoms: C_4  and  C_25
REMARK    4  A    between atoms: C_8  and  C_23
REMARK    5  A    between atoms: C_8  and  C_24
REMARK    6  A    between atoms: C_11  and  O_19
REMARK    7  A    between atoms: C_13  and  O_15
REMARK    8  A    between atoms: O_15  and  C_16
REMARK    9  A    between atoms: C_16  and  C_18
REMARK   10  A    between atoms: O_19  and  C_20
REMARK   11  A    between atoms: C_20  and  C_22
REMARK   12  A    between atoms: C_26  and  C_27
REMARK   13  A    between atoms: C_27  and  C_28
REMARK   14  A    between atoms: C_28  and  C_32
REMARK   15  A    between atoms: C_29  and  C_30
REMARK   16  A    between atoms: C_30  and  O_31
REMARK                            x       y       z     vdW  Elec       q    Type
REMARK                         _______ _______ _______ _____ _____    ______ ____
ROOT
ATOM      1  C   UNL     1       0.647   2.978   0.366  1.00  0.00    +0.000 C 
ATOM      2  C   UNL     1      -0.025   1.624   0.283  1.00  0.00    +0.000 C 
ATOM      3  C   UNL     1       0.639   0.438   0.235  1.00  0.00    +0.000 C 
ATOM      4  C   UNL     1      -0.103  -0.938   0.222  1.00  0.00    +0.000 C 
ATOM      5  C   UNL     1       0.492  -1.884   1.318  1.00  0.00    +0.000 C 
ATOM      6  C   UNL     1      -0.482  -2.895   1.935  1.00  0.00    +0.000 C 
ATOM      7  C   UNL     1      -1.610  -3.292   0.994  1.00  0.00    +0.000 C 
ATOM      8  C   UNL     1      -2.482  -2.079   0.578  1.00  0.00    +0.000 C 
ATOM      9  C   UNL     1      -1.626  -0.753   0.565  1.00  0.00    +0.000 C 
ATOM     10  C   UNL     1      -2.265   0.437  -0.185  1.00  0.00    +0.000 C 
ATOM     11  C   UNL     1      -1.545   1.744   0.217  1.00  0.00    +0.000 C 
ATOM     12  C   UNL     1      -3.609  -1.919   1.637  1.00  0.00    +0.000 C 
ATOM     13  C   UNL     1      -3.191  -2.407  -0.750  1.00  0.00    +0.000 C 
ATOM     14  C   UNL     1       0.157  -1.562  -1.170  1.00  0.00    +0.000 C 
ENDROOT
BRANCH  11  15
ATOM     15  O   UNL     1      -2.006   2.107   1.538  1.00  0.00    +0.000 OA
BRANCH  15  16
ATOM     16  C   UNL     1      -2.527   3.352   1.687  1.00  0.00    +0.000 C 
ATOM     17  O   UNL     1      -2.582   4.218   0.828  1.00  0.00    +0.000 OA
ATOM     18  C   UNL     1      -3.014   3.530   3.093  1.00  0.00    +0.000 C 
ENDBRANCH  15  16
ENDBRANCH  11  15
BRANCH  10  19
ATOM     19  O   UNL     1      -2.194   0.234  -1.610  1.00  0.00    +0.000 OA
BRANCH  19  20
ATOM     20  C   UNL     1      -3.107   0.912  -2.356  1.00  0.00    +0.000 C 
ATOM     21  O   UNL     1      -3.973   1.652  -1.915  1.00  0.00    +0.000 OA
ATOM     22  C   UNL     1      -2.901   0.615  -3.809  1.00  0.00    +0.000 C 
ENDBRANCH  19  20
ENDBRANCH  10  19
BRANCH   3  23
ATOM     23  C   UNL     1       2.170   0.385   0.196  1.00  0.00    +0.000 C 
BRANCH  23  24
ATOM     24  C   UNL     1       2.762   0.768  -1.173  1.00  0.00    +0.000 C 
BRANCH  24  25
ATOM     25  C   UNL     1       4.277   0.650  -1.200  1.00  0.00    +0.000 C 
ATOM     26  C   UNL     1       4.866  -0.347  -1.891  1.00  0.00    +0.000 C 
ATOM     27  C   UNL     1       5.016   1.721  -0.443  1.00  0.00    +0.000 C 
BRANCH  26  28
ATOM     28  C   UNL     1       6.323  -0.646  -2.021  1.00  0.00    +0.000 C 
BRANCH  28  29
ATOM     29  O   UNL     1       6.493  -2.037  -1.785  1.00  0.00    +0.000 OA
ATOM     30  H   UNL     1       7.446  -2.214  -1.847  1.00  0.00    +0.000 HD
ENDBRANCH  28  29
ENDBRANCH  26  28
ENDBRANCH  24  25
ENDBRANCH  23  24
ENDBRANCH   3  23
TORSDOF 9
