REMARK  Name = /srv/my_project/app/compsite/backup/Dave/CORINA_stuff/newPDBs/SANC00595.pdb
AUTHORGENERATED BY OPEN BABEL 2.3.2
REMARK  9 active torsions:
REMARK  status: ('A' for Active; 'I' for Inactive)
REMARK    1  A    between atoms: C_5  and  C_7
REMARK    2  A    between atoms: C_11  and  C_13
REMARK    3  A    between atoms: C_13  and  C_14
REMARK    4  A    between atoms: C_20  and  C_21
REMARK    5  A    between atoms: C_20  and  C_22
REMARK    6  A    between atoms: C_27  and  C_28
REMARK    7  A    between atoms: C_30  and  C_31
REMARK    8  A    between atoms: C_36  and  C_37
REMARK    9  A    between atoms: C_36  and  C_38
REMARK                            x       y       z     vdW  Elec       q    Type
REMARK                         _______ _______ _______ _____ _____    ______ ____
ROOT
ATOM      1  C   UNL     1      -3.798  -0.456  -1.540  1.00  0.00    +0.000 C 
ATOM      2  C   UNL     1      -3.431   0.001  -2.946  1.00  0.00    +0.000 C 
ATOM      3  C   UNL     1      -2.140  -0.669  -3.421  1.00  0.00    +0.000 C 
ATOM      4  C   UNL     1      -1.138  -0.981  -2.289  1.00  0.00    +0.000 C 
ATOM      5  C   UNL     1      -1.166  -2.464  -1.891  1.00  0.00    +0.000 C 
ATOM      6  C   UNL     1      -1.284   0.026  -1.102  1.00  0.00    +0.000 C 
ATOM      7  C   UNL     1      -0.748   1.400  -1.597  1.00  0.00    +0.000 C 
ATOM      8  C   UNL     1       0.232   1.830  -0.527  1.00  0.00    +0.000 C 
ATOM      9  C   UNL     1       0.817   0.493  -0.094  1.00  0.00    +0.000 C 
ATOM     10  O   UNL     1      -0.347  -0.358  -0.065  1.00  0.00    +0.000 OA
ATOM     11  C   UNL     1      -2.765   0.031  -0.474  1.00  0.00    +0.000 C 
ATOM     12  C   UNL     1      -3.148   1.446   0.047  1.00  0.00    +0.000 C 
ATOM     13  C   UNL     1      -2.857  -0.931   0.766  1.00  0.00    +0.000 C 
ATOM     14  C   UNL     1      -4.229  -1.090   1.428  1.00  0.00    +0.000 C 
ATOM     15  C   UNL     1      -5.241  -1.782   0.539  1.00  0.00    +0.000 C 
ATOM     16  O   UNL     1      -5.487  -2.981   0.696  1.00  0.00    +0.000 OA
ATOM     17  C   UNL     1      -5.942  -0.929  -0.550  1.00  0.00    +0.000 C 
ATOM     18  C   UNL     1      -6.576  -1.844  -1.610  1.00  0.00    +0.000 C 
ATOM     19  C   UNL     1      -7.057  -0.123   0.125  1.00  0.00    +0.000 C 
ATOM     20  O   UNL     1      -5.109   0.018  -1.223  1.00  0.00    +0.000 OA
ENDROOT
BRANCH   9  21
ATOM     21  C   UNL     1       1.573   0.419   1.283  1.00  0.00    +0.000 C 
ATOM     22  C   UNL     1       0.749   1.156   2.361  1.00  0.00    +0.000 C 
ATOM     23  C   UNL     1       1.726  -1.077   1.709  1.00  0.00    +0.000 C 
ATOM     24  C   UNL     1       3.080  -1.560   1.184  1.00  0.00    +0.000 C 
ATOM     25  C   UNL     1       3.764  -0.346   0.560  1.00  0.00    +0.000 C 
ATOM     26  O   UNL     1       5.163  -0.398   0.807  1.00  0.00    +0.000 OA
ATOM     27  C   UNL     1       5.996   0.209  -0.181  1.00  0.00    +0.000 C 
ATOM     28  C   UNL     1       7.355   0.436   0.491  1.00  0.00    +0.000 C 
ATOM     29  C   UNL     1       6.182  -0.790  -1.333  1.00  0.00    +0.000 C 
ATOM     30  C   UNL     1       5.517   1.574  -0.734  1.00  0.00    +0.000 C 
ATOM     31  O   UNL     1       5.667   1.896  -1.915  1.00  0.00    +0.000 OA
ATOM     32  C   UNL     1       4.839   2.526   0.230  1.00  0.00    +0.000 C 
ATOM     33  C   UNL     1       3.365   2.157   0.408  1.00  0.00    +0.000 C 
ATOM     34  C   UNL     1       3.094   0.879   1.236  1.00  0.00    +0.000 C 
ATOM     35  C   UNL     1       3.663   1.094   2.670  1.00  0.00    +0.000 C 
ENDBRANCH   9  21
TORSDOF 1
