REMARK  Name = SANCDB_01020_minRM1.pdb
AUTHORGENERATED BY OPEN BABEL 2.3.2
REMARK  5 active torsions:
REMARK  status: ('A' for Active; 'I' for Inactive)
REMARK    1  A    between atoms: C_1  and  C_2
REMARK    2  A    between atoms: C_9  and  O_15
REMARK    3  A    between atoms: C_11  and  O_13
REMARK    4  A    between atoms: O_13  and  C_14
REMARK    5  A    between atoms: O_15  and  C_16
REMARK                            x       y       z     vdW  Elec       q    Type
REMARK                         _______ _______ _______ _____ _____    ______ ____
ROOT
ATOM      1  C   UNL     1      -3.268  -0.201   0.470  1.00  0.00    +0.000 C 
ATOM      2  C   UNL     1      -2.029  -1.050   0.436  1.00  0.00    +0.000 A 
ATOM      3  C   UNL     1      -2.141  -2.381   0.577  1.00  0.00    +0.000 A 
ATOM      4  C   UNL     1      -1.002  -3.304   0.560  1.00  0.00    +0.000 A 
ATOM      5  O   UNL     1      -1.165  -4.510   0.694  1.00  0.00    +0.000 OA
ATOM      6  O   UNL     1       0.244  -2.737   0.387  1.00  0.00    +0.000 OA
ATOM      7  C   UNL     1       0.407  -1.343   0.235  1.00  0.00    +0.000 A 
ATOM      8  C   UNL     1      -0.682  -0.458   0.251  1.00  0.00    +0.000 A 
ATOM      9  C   UNL     1      -0.391   0.915   0.089  1.00  0.00    +0.000 A 
ATOM     10  C   UNL     1       0.942   1.333  -0.077  1.00  0.00    +0.000 A 
ATOM     11  C   UNL     1       2.002   0.422  -0.088  1.00  0.00    +0.000 A 
ATOM     12  C   UNL     1       1.732  -0.927   0.070  1.00  0.00    +0.000 A 
ENDROOT
BRANCH  11  13
ATOM     13  O   UNL     1       3.238   0.982  -0.259  1.00  0.00    +0.000 OA
ATOM     14  C   UNL     1       4.350   0.095  -0.277  1.00  0.00    +0.000 C 
ENDBRANCH  11  13
BRANCH   9  15
ATOM     15  O   UNL     1      -1.444   1.794   0.102  1.00  0.00    +0.000 OA
ATOM     16  C   UNL     1      -1.174   3.181  -0.059  1.00  0.00    +0.000 C 
ENDBRANCH   9  15
TORSDOF 2
