REMARK  Name = SANCDB_00956_minRM1.pdb
AUTHORGENERATED BY OPEN BABEL 2.3.2
REMARK  4 active torsions:
REMARK  status: ('A' for Active; 'I' for Inactive)
REMARK    1  A    between atoms: O_1  and  C_2
REMARK    2  A    between atoms: C_2  and  C_3
REMARK    3  A    between atoms: C_3  and  C_4
REMARK    4  A    between atoms: C_7  and  O_10
REMARK                            x       y       z     vdW  Elec       q    Type
REMARK                         _______ _______ _______ _____ _____    ______ ____
ROOT
ATOM      1  C   UNL     1      -0.128   0.120   0.351  1.00  0.00    +0.000 A 
ATOM      2  C   UNL     1       0.435  -1.117   0.696  1.00  0.00    +0.000 A 
ATOM      3  C   UNL     1       1.764  -1.400   0.379  1.00  0.00    +0.000 A 
ATOM      4  C   UNL     1       2.531  -0.452  -0.286  1.00  0.00    +0.000 A 
ATOM      5  C   UNL     1       1.990   0.779  -0.642  1.00  0.00    +0.000 A 
ATOM      6  C   UNL     1       0.660   1.063  -0.325  1.00  0.00    +0.000 A 
ENDROOT
BRANCH   4   7
ATOM      7  O   UNL     1       3.824  -0.771  -0.577  1.00  0.00    +0.000 OA
ATOM      8  H   UNL     1       4.234  -0.018  -1.033  1.00  0.00    +0.000 HD
ENDBRANCH   4   7
BRANCH   1   9
ATOM      9  C   UNL     1      -1.568   0.416   0.676  1.00  0.00    +0.000 C 
BRANCH   9  10
ATOM     10  C   UNL     1      -2.518  -0.074  -0.413  1.00  0.00    +0.000 C 
BRANCH  10  11
ATOM     11  O   UNL     1      -3.864   0.240  -0.071  1.00  0.00    +0.000 OA
ATOM     12  H   UNL     1      -3.943   1.209  -0.052  1.00  0.00    +0.000 HD
ENDBRANCH  10  11
ENDBRANCH   9  10
ENDBRANCH   1   9
TORSDOF 4
