REMARK  Name = /srv/my_project/app/compsite/backup/Dave/CORINA_stuff/newPDBs/SANC00419.pdb
AUTHORGENERATED BY OPEN BABEL 2.3.2
REMARK  12 active torsions:
REMARK  status: ('A' for Active; 'I' for Inactive)
REMARK    1  A    between atoms: C_1  and  C_2
REMARK    2  A    between atoms: C_7  and  C_8
REMARK    3  A    between atoms: C_7  and  C_9
REMARK    4  A    between atoms: C_15  and  C_16
REMARK    5  A    between atoms: C_17  and  C_18
REMARK    6  A    between atoms: C_18  and  C_19
REMARK    7  A    between atoms: C_19  and  C_20
REMARK    8  A    between atoms: C_20  and  C_21
REMARK    9  A    between atoms: C_22  and  C_24
REMARK   10  A    between atoms: C_30  and  O_31
REMARK   11  A    between atoms: C_36  and  C_37
REMARK   12  A    between atoms: C_36  and  C_38
REMARK                            x       y       z     vdW  Elec       q    Type
REMARK                         _______ _______ _______ _____ _____    ______ ____
ROOT
ATOM      1  C   UNL     1      -0.525  -0.121  -0.556  1.00  0.00    +0.000 C 
ENDROOT
BRANCH   1   2
ATOM      2  C   UNL     1      -1.845   0.648  -0.965  1.00  0.00    +0.000 C 
ATOM      3  C   UNL     1      -2.126   0.303  -2.451  1.00  0.00    +0.000 C 
ATOM      4  C   UNL     1      -1.596   2.193  -0.797  1.00  0.00    +0.000 C 
ATOM      5  C   UNL     1      -2.638   3.087  -1.494  1.00  0.00    +0.000 C 
ATOM      6  C   UNL     1      -1.389   2.594   0.690  1.00  0.00    +0.000 C 
ATOM      7  C   UNL     1      -2.222   1.808   1.710  1.00  0.00    +0.000 C 
ATOM      8  C   UNL     1      -3.449   1.222   1.048  1.00  0.00    +0.000 C 
ATOM      9  O   UNL     1      -4.376   0.677   2.005  1.00  0.00    +0.000 OA
ATOM     10  C   UNL     1      -5.073  -0.450   1.436  1.00  0.00    +0.000 C 
ATOM     11  C   UNL     1      -4.063  -1.590   1.496  1.00  0.00    +0.000 C 
ATOM     12  C   UNL     1      -2.901  -1.233   0.571  1.00  0.00    +0.000 C 
ATOM     13  C   UNL     1      -3.090   0.184  -0.057  1.00  0.00    +0.000 C 
ATOM     14  O   UNL     1      -4.303   0.091  -0.867  1.00  0.00    +0.000 OA
ATOM     15  C   UNL     1      -5.486  -0.193  -0.061  1.00  0.00    +0.000 C 
ATOM     16  C   UNL     1      -6.462   0.988  -0.194  1.00  0.00    +0.000 C 
ATOM     17  C   UNL     1      -6.161  -1.416  -0.703  1.00  0.00    +0.000 C 
BRANCH  10  18
ATOM     18  O   UNL     1      -6.188  -0.734   2.254  1.00  0.00    +0.000 OA
ATOM     19  H   UNL     1      -5.828  -0.779   3.156  1.00  0.00    +0.000 HD
ENDBRANCH  10  18
ENDBRANCH   1   2
BRANCH   1  20
ATOM     20  C   UNL     1       0.786   0.295  -1.246  1.00  0.00    +0.000 C 
BRANCH  20  36
ATOM     21  C   UNL     1       2.020  -1.670   1.288  1.00  0.00    +0.000 C 
ATOM     22  C   UNL     1       2.698  -0.670   0.310  1.00  0.00    +0.000 C 
ATOM     23  C   UNL     1       2.736   0.693   1.066  1.00  0.00    +0.000 C 
ATOM     24  C   UNL     1       3.703   1.709   0.475  1.00  0.00    +0.000 C 
ATOM     25  C   UNL     1       5.120   1.590   1.012  1.00  0.00    +0.000 C 
ATOM     26  O   UNL     1       5.789   2.621   1.157  1.00  0.00    +0.000 OA
ATOM     27  C   UNL     1       5.747   0.188   1.296  1.00  0.00    +0.000 C 
ATOM     28  C   UNL     1       6.193   0.200   2.767  1.00  0.00    +0.000 C 
ATOM     29  C   UNL     1       6.995   0.034   0.410  1.00  0.00    +0.000 C 
ATOM     30  O   UNL     1       4.963  -0.998   1.174  1.00  0.00    +0.000 OA
ATOM     31  C   UNL     1       4.167  -1.087  -0.004  1.00  0.00    +0.000 C 
ATOM     32  C   UNL     1       4.228  -2.502  -0.559  1.00  0.00    +0.000 C 
ATOM     33  C   UNL     1       3.406  -2.603  -1.840  1.00  0.00    +0.000 C 
ATOM     34  C   UNL     1       2.240  -1.632  -1.975  1.00  0.00    +0.000 C 
ATOM     35  C   UNL     1       1.500  -1.818  -3.281  1.00  0.00    +0.000 C 
ATOM     36  C   UNL     1       1.912  -0.713  -1.026  1.00  0.00    +0.000 C 
ENDBRANCH  20  36
ENDBRANCH   1  20
TORSDOF 4
