REMARK  Name = SANCDB_01093_minRM1.pdb
AUTHORGENERATED BY OPEN BABEL 2.3.2
REMARK  9 active torsions:
REMARK  status: ('A' for Active; 'I' for Inactive)
REMARK    1  A    between atoms: C_3  and  O_40
REMARK    2  A    between atoms: C_6  and  C_7
REMARK    3  A    between atoms: C_8  and  C_20
REMARK    4  A    between atoms: C_14  and  O_19
REMARK    5  A    between atoms: C_16  and  O_18
REMARK    6  A    between atoms: C_21  and  C_33
REMARK    7  A    between atoms: C_23  and  O_32
REMARK    8  A    between atoms: C_25  and  O_31
REMARK    9  A    between atoms: C_36  and  O_39
REMARK                            x       y       z     vdW  Elec       q    Type
REMARK                         _______ _______ _______ _____ _____    ______ ____
ROOT
ATOM      1  C   UNL     1       1.056  -0.703   0.906  1.00  0.00    +0.000 C 
ATOM      2  C   UNL     1       0.041  -0.146   1.929  1.00  0.00    +0.000 C 
ATOM      3  C   UNL     1       0.402   1.254   2.380  1.00  0.00    +0.000 C 
ATOM      4  O   UNL     1      -0.406   2.148   2.593  1.00  0.00    +0.000 OA
ATOM      5  O   UNL     1       1.757   1.436   2.667  1.00  0.00    +0.000 OA
ATOM      6  C   UNL     1       2.710   0.425   2.424  1.00  0.00    +0.000 A 
ATOM      7  C   UNL     1       3.950   0.563   3.038  1.00  0.00    +0.000 A 
ATOM      8  C   UNL     1       4.918  -0.408   2.814  1.00  0.00    +0.000 A 
ATOM      9  C   UNL     1       4.662  -1.501   1.987  1.00  0.00    +0.000 A 
ATOM     10  C   UNL     1       3.412  -1.613   1.374  1.00  0.00    +0.000 A 
ATOM     11  C   UNL     1       2.419  -0.650   1.580  1.00  0.00    +0.000 A 
ENDROOT
BRANCH   2  12
ATOM     12  C   UNL     1      -1.492  -0.420   1.818  1.00  0.00    +0.000 C 
ATOM     13  C   UNL     1      -2.393  -0.136   0.592  1.00  0.00    +0.000 C 
ATOM     14  C   UNL     1      -2.298  -1.216  -0.469  1.00  0.00    +0.000 A 
ATOM     15  C   UNL     1      -2.791  -1.120  -1.780  1.00  0.00    +0.000 A 
ATOM     16  C   UNL     1      -2.652  -2.165  -2.703  1.00  0.00    +0.000 A 
ATOM     17  C   UNL     1      -2.081  -3.363  -2.295  1.00  0.00    +0.000 A 
ATOM     18  C   UNL     1      -1.694  -3.540  -0.978  1.00  0.00    +0.000 A 
ATOM     19  C   UNL     1      -1.832  -2.477  -0.082  1.00  0.00    +0.000 A 
ATOM     20  O   UNL     1      -1.573  -2.798   1.263  1.00  0.00    +0.000 OA
ATOM     21  C   UNL     1      -1.708  -1.848   2.256  1.00  0.00    +0.000 C 
ATOM     22  O   UNL     1      -1.856  -2.166   3.432  1.00  0.00    +0.000 OA
BRANCH  13  23
ATOM     23  C   UNL     1      -2.385   1.344   0.216  1.00  0.00    +0.000 A 
ATOM     24  C   UNL     1      -3.096   2.254   1.026  1.00  0.00    +0.000 A 
ATOM     25  C   UNL     1      -3.107   3.624   0.749  1.00  0.00    +0.000 A 
ATOM     26  C   UNL     1      -2.413   4.103  -0.353  1.00  0.00    +0.000 A 
ATOM     27  C   UNL     1      -1.718   3.232  -1.178  1.00  0.00    +0.000 A 
ATOM     28  C   UNL     1      -1.704   1.864  -0.890  1.00  0.00    +0.000 A 
BRANCH  26  29
ATOM     29  O   UNL     1      -2.391   5.430  -0.661  1.00  0.00    +0.000 OA
ATOM     30  H   UNL     1      -2.862   5.909   0.040  1.00  0.00    +0.000 HD
ENDBRANCH  26  29
ENDBRANCH  13  23
BRANCH  17  31
ATOM     31  O   UNL     1      -1.926  -4.411  -3.151  1.00  0.00    +0.000 OA
ATOM     32  H   UNL     1      -2.242  -4.153  -4.032  1.00  0.00    +0.000 HD
ENDBRANCH  17  31
BRANCH  15  33
ATOM     33  O   UNL     1      -3.488  -0.009  -2.158  1.00  0.00    +0.000 OA
ATOM     34  H   UNL     1      -3.663  -0.028  -3.113  1.00  0.00    +0.000 HD
ENDBRANCH  15  33
ENDBRANCH   2  12
BRANCH   1  40
ATOM     35  C   UNL     1       1.044  -0.952  -1.607  1.00  0.00    +0.000 A 
ATOM     36  C   UNL     1       1.211  -0.471  -2.908  1.00  0.00    +0.000 A 
ATOM     37  C   UNL     1       1.524   0.865  -3.110  1.00  0.00    +0.000 A 
ATOM     38  C   UNL     1       1.679   1.724  -2.030  1.00  0.00    +0.000 A 
ATOM     39  C   UNL     1       1.497   1.241  -0.728  1.00  0.00    +0.000 A 
ATOM     40  C   UNL     1       1.157  -0.103  -0.491  1.00  0.00    +0.000 A 
BRANCH  37  41
ATOM     41  O   UNL     1       1.679   1.298  -4.392  1.00  0.00    +0.000 OA
ATOM     42  H   UNL     1       1.912   2.241  -4.370  1.00  0.00    +0.000 HD
ENDBRANCH  37  41
ENDBRANCH   1  40
BRANCH  10  43
ATOM     43  O   UNL     1       3.135  -2.679   0.566  1.00  0.00    +0.000 OA
ATOM     44  H   UNL     1       3.942  -3.205   0.439  1.00  0.00    +0.000 HD
ENDBRANCH  10  43
BRANCH   8  45
ATOM     45  O   UNL     1       6.123  -0.251   3.432  1.00  0.00    +0.000 OA
ATOM     46  H   UNL     1       6.705  -0.992   3.194  1.00  0.00    +0.000 HD
ENDBRANCH   8  45
TORSDOF 9
