REMARK  Name = /srv/my_project/app/compsite/backup/Dave/CORINA_stuff/newPDBs/SANC00187.pdb
AUTHORGENERATED BY OPEN BABEL 2.3.2
REMARK  11 active torsions:
REMARK  status: ('A' for Active; 'I' for Inactive)
REMARK    1  A    between atoms: C_2  and  C_3
REMARK    2  A    between atoms: C_2  and  C_4
REMARK    3  A    between atoms: C_4  and  C_5
REMARK    4  A    between atoms: C_4  and  C_6
REMARK    5  A    between atoms: C_6  and  C_7
REMARK    6  A    between atoms: C_7  and  C_8
REMARK    7  A    between atoms: C_8  and  C_9
REMARK    8  A    between atoms: C_12  and  O_13
REMARK    9  A    between atoms: C_15  and  C_16
REMARK   10  A    between atoms: C_17  and  C_18
REMARK   11  A    between atoms: C_20  and  C_21
REMARK                            x       y       z     vdW  Elec       q    Type
REMARK                         _______ _______ _______ _____ _____    ______ ____
ROOT
ATOM      1  C   UNL     1       0.161  -0.764  -0.674  1.00  0.00    +0.000 C 
ATOM      2  C   UNL     1      -0.338  -2.233  -0.525  1.00  0.00    +0.000 C 
ATOM      3  C   UNL     1       0.599  -0.564  -2.172  1.00  0.00    +0.000 C 
ATOM      4 CL   UNL     1      -0.775  -0.602  -3.336  1.00  0.00    +0.000 Cl
ATOM      5  C   UNL     1       1.439   0.693  -2.459  1.00  0.00    +0.000 C 
ATOM      6  C   UNL     1       2.668   0.768  -1.558  1.00  0.00    +0.000 C 
ATOM      7  C   UNL     1       2.396   0.620  -0.035  1.00  0.00    +0.000 C 
ATOM      8  C   UNL     1       1.779   1.925   0.525  1.00  0.00    +0.000 C 
ATOM      9  C   UNL     1       3.786   0.342   0.682  1.00  0.00    +0.000 C 
ATOM     10  C   UNL     1       3.639  -0.189   2.092  1.00  0.00    +0.000 C 
ATOM     11  C   UNL     1       2.495  -0.715   2.562  1.00  0.00    +0.000 C 
ATOM     12  C   UNL     1       1.252  -0.866   1.734  1.00  0.00    +0.000 C 
ATOM     13  C   UNL     1       1.480  -0.634   0.216  1.00  0.00    +0.000 C 
ENDROOT
BRANCH   5  14
ATOM     14  O   UNL     1       0.695   1.901  -2.341  1.00  0.00    +0.000 OA
ATOM     15  H   UNL     1      -0.054   1.831  -2.963  1.00  0.00    +0.000 HD
ENDBRANCH   5  14
BRANCH   9  16
ATOM     16  C   UNL     1       4.687   1.576   0.625  1.00  0.00    +0.000 C 
ATOM     17  O   UNL     1       5.412   1.831  -0.335  1.00  0.00    +0.000 OA
ENDBRANCH   9  16
BRANCH  10  18
ATOM     18  C   UNL     1       4.803  -0.201   3.017  1.00  0.00    +0.000 C 
ATOM     19  O   UNL     1       5.901   0.234   2.702  1.00  0.00    +0.000 OA
ENDBRANCH  10  18
BRANCH   1  20
ATOM     20  C   UNL     1      -0.971   0.233  -0.233  1.00  0.00    +0.000 C 
BRANCH  20  21
ATOM     21  C   UNL     1      -2.430  -0.262  -0.298  1.00  0.00    +0.000 C 
BRANCH  21  22
ATOM     22  C   UNL     1      -3.470   0.865  -0.085  1.00  0.00    +0.000 C 
ATOM     23  C   UNL     1      -3.300   1.555   1.276  1.00  0.00    +0.000 C 
BRANCH  22  25
ATOM     24  C   UNL     1      -5.703  -0.099   0.654  1.00  0.00    +0.000 C 
ATOM     25  C   UNL     1      -4.879   0.320  -0.322  1.00  0.00    +0.000 C 
ATOM     26  C   UNL     1      -5.327   0.286  -1.762  1.00  0.00    +0.000 C 
ENDBRANCH  22  25
ENDBRANCH  21  22
ENDBRANCH  20  21
ENDBRANCH   1  20
TORSDOF 7
