REMARK  Name = /srv/my_project/app/compsite/backup/Dave/CORINA_stuff/newPDBs/SANC00510.pdb
AUTHORGENERATED BY OPEN BABEL 2.3.2
REMARK  29 active torsions:
REMARK  status: ('A' for Active; 'I' for Inactive)
REMARK    1  A    between atoms: C_2  and  O_3
REMARK    2  A    between atoms: O_3  and  C_4
REMARK    3  A    between atoms: C_15  and  O_17
REMARK    4  A    between atoms: C_20  and  C_21
REMARK    5  A    between atoms: C_24  and  O_26
REMARK    6  A    between atoms: C_28  and  C_29
REMARK    7  A    between atoms: C_30  and  C_32
REMARK    8  A    between atoms: C_32  and  C_34
REMARK    9  A    between atoms: C_32  and  C_35
REMARK   10  A    between atoms: C_35  and  O_37
REMARK   11  A    between atoms: C_35  and  C_38
REMARK   12  A    between atoms: C_38  and  C_39
REMARK   13  A    between atoms: C_39  and  C_40
REMARK   14  A    between atoms: C_40  and  C_41
REMARK   15  A    between atoms: C_40  and  C_42
REMARK   16  A    between atoms: C_44  and  C_46
REMARK   17  A    between atoms: C_47  and  O_49
REMARK   18  A    between atoms: C_50  and  O_52
REMARK   19  A    between atoms: O_52  and  C_53
REMARK   20  A    between atoms: C_53  and  C_55
REMARK   21  A    between atoms: C_57  and  O_58
REMARK   22  A    between atoms: O_58  and  C_59
REMARK   23  A    between atoms: C_60  and  O_61
REMARK   24  A    between atoms: O_61  and  C_62
REMARK   25  A    between atoms: C_63  and  O_64
REMARK   26  A    between atoms: O_64  and  C_65
REMARK   27  A    between atoms: C_67  and  O_69
REMARK   28  A    between atoms: O_69  and  C_70
REMARK   29  A    between atoms: C_70  and  C_71
REMARK                            x       y       z     vdW  Elec       q    Type
REMARK                         _______ _______ _______ _____ _____    ______ ____
ROOT
ATOM      1  C   UNL     1      -0.206   0.314  -0.335  1.00  0.00    +0.000 C 
ATOM      2  C   UNL     1      -1.233   1.437  -0.602  1.00  0.00    +0.000 C 
ATOM      3  C   UNL     1      -2.121   1.434   0.637  1.00  0.00    +0.000 C 
ATOM      4  C   UNL     1      -3.458   2.186   0.579  1.00  0.00    +0.000 C 
ATOM      5  C   UNL     1      -3.226   3.664   0.233  1.00  0.00    +0.000 C 
ATOM      6  C   UNL     1      -4.444   4.505   0.427  1.00  0.00    +0.000 C 
ATOM      7  C   UNL     1      -5.517   4.139   1.149  1.00  0.00    +0.000 C 
ATOM      8  C   UNL     1      -6.719   5.069   1.231  1.00  0.00    +0.000 C 
ATOM      9  C   UNL     1      -7.401   5.093   2.606  1.00  0.00    +0.000 C 
ATOM     10  C   UNL     1      -6.492   4.546   3.695  1.00  0.00    +0.000 C 
ATOM     11  C   UNL     1      -6.033   3.111   3.406  1.00  0.00    +0.000 C 
ATOM     12  C   UNL     1      -5.593   2.818   1.931  1.00  0.00    +0.000 C 
ATOM     13  C   UNL     1      -6.664   1.938   1.238  1.00  0.00    +0.000 C 
ATOM     14  C   UNL     1      -4.191   2.062   1.948  1.00  0.00    +0.000 C 
ATOM     15  C   UNL     1      -4.255   0.579   2.430  1.00  0.00    +0.000 C 
ATOM     16  C   UNL     1      -2.895  -0.145   2.374  1.00  0.00    +0.000 C 
ATOM     17  C   UNL     1      -2.254  -0.070   0.983  1.00  0.00    +0.000 C 
ATOM     18  C   UNL     1      -3.127  -0.840  -0.033  1.00  0.00    +0.000 C 
ATOM     19  C   UNL     1      -0.743  -0.461   0.922  1.00  0.00    +0.000 C 
ENDROOT
BRANCH  19  20
ATOM     20  C   UNL     1      -0.240  -1.929   1.067  1.00  0.00    +0.000 C 
ATOM     21  C   UNL     1      -0.883  -2.968   0.135  1.00  0.00    +0.000 C 
BRANCH  20  22
ATOM     22  C   UNL     1      -0.277  -2.478   2.527  1.00  0.00    +0.000 C 
BRANCH  22  23
ATOM     23  O   UNL     1       0.274  -3.801   2.536  1.00  0.00    +0.000 OA
ATOM     24  H   UNL     1       1.198  -3.738   2.239  1.00  0.00    +0.000 HD
ENDBRANCH  22  23
BRANCH  22  25
ATOM     25  C   UNL     1       0.499  -1.629   3.550  1.00  0.00    +0.000 C 
BRANCH  25  26
ATOM     26  C   UNL     1       0.720  -2.300   4.917  1.00  0.00    +0.000 C 
BRANCH  26  27
ATOM     27  C   UNL     1      -0.556  -2.727   5.666  1.00  0.00    +0.000 C 
ATOM     28  C   UNL     1      -1.459  -1.539   5.999  1.00  0.00    +0.000 C 
ATOM     29  C   UNL     1      -0.176  -3.461   6.955  1.00  0.00    +0.000 C 
ENDBRANCH  26  27
ENDBRANCH  25  26
ENDBRANCH  22  25
ENDBRANCH  20  22
ENDBRANCH  19  20
BRANCH  15  30
ATOM     30  O   UNL     1      -4.717   0.516   3.777  1.00  0.00    +0.000 OA
ATOM     31  H   UNL     1      -4.825  -0.423   4.008  1.00  0.00    +0.000 HD
ENDBRANCH  15  30
BRANCH   9  32
ATOM     32  O   UNL     1      -8.610   4.332   2.558  1.00  0.00    +0.000 OA
ATOM     33  H   UNL     1      -8.986   4.322   3.455  1.00  0.00    +0.000 HD
ENDBRANCH   9  32
BRANCH   1  34
ATOM     34  O   UNL     1      -0.082  -0.532  -1.467  1.00  0.00    +0.000 OA
BRANCH  34  35
ATOM     35  C   UNL     1       0.898  -0.092  -2.419  1.00  0.00    +0.000 C 
ATOM     36  O   UNL     1       0.512   1.163  -2.972  1.00  0.00    +0.000 OA
ATOM     37  C   UNL     1       1.362   1.673  -4.005  1.00  0.00    +0.000 C 
ATOM     38  C   UNL     1       2.624   2.276  -3.392  1.00  0.00    +0.000 C 
ATOM     39  C   UNL     1       1.628   0.645  -5.129  1.00  0.00    +0.000 C 
ATOM     40  C   UNL     1       2.008  -0.738  -4.584  1.00  0.00    +0.000 C 
ATOM     41  C   UNL     1       0.995  -1.171  -3.511  1.00  0.00    +0.000 C 
BRANCH  39  42
ATOM     42  O   UNL     1       0.440   0.537  -5.925  1.00  0.00    +0.000 OA
ATOM     43  H   UNL     1       0.594  -0.116  -6.631  1.00  0.00    +0.000 HD
ENDBRANCH  39  42
BRANCH  40  44
ATOM     44  O   UNL     1       3.349  -0.654  -4.036  1.00  0.00    +0.000 OA
BRANCH  44  45
ATOM     45  C   UNL     1       4.127  -1.760  -4.145  1.00  0.00    +0.000 C 
ATOM     46  O   UNL     1       3.812  -2.812  -4.675  1.00  0.00    +0.000 OA
BRANCH  45  47
ATOM     47  C   UNL     1       5.443  -1.545  -3.485  1.00  0.00    +0.000 A 
ATOM     48  C   UNL     1       6.229  -2.676  -3.215  1.00  0.00    +0.000 A 
ATOM     49  C   UNL     1       7.469  -2.539  -2.591  1.00  0.00    +0.000 A 
ATOM     50  C   UNL     1       7.905  -1.254  -2.224  1.00  0.00    +0.000 A 
ATOM     51  C   UNL     1       7.142  -0.110  -2.516  1.00  0.00    +0.000 A 
ATOM     52  C   UNL     1       5.905  -0.265  -3.144  1.00  0.00    +0.000 A 
BRANCH  49  53
ATOM     53  O   UNL     1       8.307  -3.579  -2.281  1.00  0.00    +0.000 OA
ATOM     54  C   UNL     1       7.996  -4.854  -2.827  1.00  0.00    +0.000 C 
ENDBRANCH  49  53
BRANCH  50  55
ATOM     55  O   UNL     1       9.146  -1.103  -1.646  1.00  0.00    +0.000 OA
ATOM     56  C   UNL     1       9.033  -1.175  -0.225  1.00  0.00    +0.000 C 
ENDBRANCH  50  55
BRANCH  51  57
ATOM     57  O   UNL     1       7.679   1.092  -2.136  1.00  0.00    +0.000 OA
ATOM     58  C   UNL     1       7.035   2.276  -2.587  1.00  0.00    +0.000 C 
ENDBRANCH  51  57
ENDBRANCH  45  47
ENDBRANCH  44  45
ENDBRANCH  40  44
BRANCH  41  59
ATOM     59  O   UNL     1       1.393  -2.426  -2.914  1.00  0.00    +0.000 OA
BRANCH  59  60
ATOM     60  C   UNL     1       1.037  -3.533  -3.623  1.00  0.00    +0.000 C 
ATOM     61  C   UNL     1       1.492  -4.769  -2.911  1.00  0.00    +0.000 C 
ATOM     62  O   UNL     1       0.425  -3.528  -4.682  1.00  0.00    +0.000 OA
ENDBRANCH  59  60
ENDBRANCH  41  59
ENDBRANCH  34  35
ENDBRANCH   1  34
TORSDOF 19
