REMARK  Name = /srv/my_project/app/compsite/backup/Dave/CORINA_stuff/newPDBs/SANC00604.pdb
AUTHORGENERATED BY OPEN BABEL 2.3.2
REMARK  12 active torsions:
REMARK  status: ('A' for Active; 'I' for Inactive)
REMARK    1  A    between atoms: C_10  and  C_11
REMARK    2  A    between atoms: C_12  and  C_14
REMARK    3  A    between atoms: C_14  and  C_16
REMARK    4  A    between atoms: C_14  and  N_17
REMARK    5  A    between atoms: N_17  and  C_18
REMARK    6  A    between atoms: N_17  and  C_19
REMARK    7  A    between atoms: C_20  and  O_22
REMARK    8  A    between atoms: C_24  and  C_25
REMARK    9  A    between atoms: C_30  and  N_32
REMARK   10  A    between atoms: N_32  and  C_33
REMARK   11  A    between atoms: C_34  and  C_35
REMARK   12  A    between atoms: C_34  and  C_36
REMARK                            x       y       z     vdW  Elec       q    Type
REMARK                         _______ _______ _______ _____ _____    ______ ____
ROOT
ATOM      1  C   UNL     1      -3.309   0.217   0.799  1.00  0.00    +0.000 C 
ATOM      2  C   UNL     1      -2.184   1.153   1.280  1.00  0.00    +0.000 C 
ATOM      3  C   UNL     1      -0.970   0.487   1.913  1.00  0.00    +0.000 C 
ATOM      4  C   UNL     1      -0.004  -0.017   0.826  1.00  0.00    +0.000 C 
ATOM      5  C   UNL     1      -0.392  -1.376   0.233  1.00  0.00    +0.000 C 
ATOM      6  C   UNL     1       0.561  -2.264  -0.153  1.00  0.00    +0.000 C 
ATOM      7  C   UNL     1       2.060  -2.049  -0.091  1.00  0.00    +0.000 C 
ATOM      8  C   UNL     1       2.404  -0.575   0.158  1.00  0.00    +0.000 C 
ATOM      9  C   UNL     1       2.207   0.186  -1.190  1.00  0.00    +0.000 C 
ATOM     10  C   UNL     1       3.818  -0.294   0.743  1.00  0.00    +0.000 C 
ATOM     11  C   UNL     1       3.645   1.117   1.360  1.00  0.00    +0.000 C 
ATOM     12  C   UNL     1       2.130   1.316   1.628  1.00  0.00    +0.000 C 
ATOM     13  C   UNL     1       1.480  -0.050   1.324  1.00  0.00    +0.000 C 
ATOM     14  C   UNL     1       1.557  -0.891   2.644  1.00  0.00    +0.000 C 
ATOM     15  C   UNL     1      -1.780  -1.794   0.102  1.00  0.00    +0.000 C 
ATOM     16  C   UNL     1      -2.963  -1.192   0.331  1.00  0.00    +0.000 C 
ATOM     17  C   UNL     1      -4.215  -2.039   0.146  1.00  0.00    +0.000 C 
ATOM     18  C   UNL     1      -5.183  -1.413  -0.850  1.00  0.00    +0.000 C 
ATOM     19  C   UNL     1      -5.556   0.021  -0.441  1.00  0.00    +0.000 C 
ATOM     20  C   UNL     1      -4.278   0.927  -0.242  1.00  0.00    +0.000 C 
ATOM     21  C   UNL     1      -3.552   1.176  -1.590  1.00  0.00    +0.000 C 
ATOM     22  C   UNL     1      -4.738   2.303   0.306  1.00  0.00    +0.000 C 
ENDROOT
BRANCH  19  23
ATOM     23  N   UNL     1      -6.495   0.615  -1.410  1.00  0.00    +0.000 NA
ATOM     24  C   UNL     1      -7.856   0.115  -1.280  1.00  0.00    +0.000 C 
ATOM     25  H   UNL     1      -6.162   0.456  -2.360  1.00  0.00    +0.000 HD
ENDBRANCH  19  23
BRANCH  10  26
ATOM     26  C   UNL     1       5.073  -0.535  -0.156  1.00  0.00    +0.000 C 
ATOM     27  C   UNL     1       6.327  -0.748   0.714  1.00  0.00    +0.000 C 
BRANCH  26  28
ATOM     28  N   UNL     1       5.258   0.443  -1.255  1.00  0.00    +0.000 NA
ATOM     29  C   UNL     1       6.185   1.541  -0.967  1.00  0.00    +0.000 C 
ATOM     30  C   UNL     1       5.695  -0.226  -2.488  1.00  0.00    +0.000 C 
ENDBRANCH  26  28
ENDBRANCH  10  26
BRANCH  11  31
ATOM     31  O   UNL     1       4.383   1.211   2.572  1.00  0.00    +0.000 OA
ATOM     32  H   UNL     1       4.223   2.098   2.937  1.00  0.00    +0.000 HD
ENDBRANCH  11  31
TORSDOF 4
