REMARK  Name = SANCDB_01057_minRM1.pdb
AUTHORGENERATED BY OPEN BABEL 2.3.2
REMARK  16 active torsions:
REMARK  status: ('A' for Active; 'I' for Inactive)
REMARK    1  A    between atoms: C_1  and  C_2
REMARK    2  A    between atoms: C_2  and  C_31
REMARK    3  A    between atoms: C_3  and  C_4
REMARK    4  A    between atoms: C_4  and  C_5
REMARK    5  A    between atoms: C_6  and  O_30
REMARK    6  A    between atoms: C_7  and  C_23
REMARK    7  A    between atoms: C_7  and  O_28
REMARK    8  A    between atoms: C_10  and  C_13
REMARK    9  A    between atoms: C_11  and  O_12
REMARK   10  A    between atoms: C_13  and  C_15
REMARK   11  A    between atoms: C_15  and  C_16
REMARK   12  A    between atoms: C_16  and  C_17
REMARK   13  A    between atoms: C_23  and  C_24
REMARK   14  A    between atoms: C_25  and  C_26
REMARK   15  A    between atoms: C_25  and  C_27
REMARK   16  A    between atoms: O_28  and  C_29
REMARK                            x       y       z     vdW  Elec       q    Type
REMARK                         _______ _______ _______ _____ _____    ______ ____
ROOT
ATOM      1  C   UNL     1      -1.568   1.136  -1.552  1.00  0.00    +0.000 C 
ATOM      2  C   UNL     1      -2.005  -0.138  -1.570  1.00  0.00    +0.000 C 
ATOM      3  C   UNL     1      -1.120  -1.343  -1.264  1.00  0.00    +0.000 C 
ATOM      4  C   UNL     1       0.347  -0.941  -1.611  1.00  0.00    +0.000 C 
ATOM      5  O   UNL     1       1.169  -1.739  -2.066  1.00  0.00    +0.000 OA
ATOM      6  C   UNL     1       0.787   0.451  -1.299  1.00  0.00    +0.000 C 
ATOM      7  C   UNL     1      -0.163   1.409  -1.267  1.00  0.00    +0.000 C 
ENDROOT
BRANCH   7   8
ATOM      8  O   UNL     1       0.106   2.738  -1.001  1.00  0.00    +0.000 OA
ATOM      9  H   UNL     1       1.080   2.866  -0.943  1.00  0.00    +0.000 HD
ENDBRANCH   7   8
BRANCH   6  10
ATOM     10  C   UNL     1       2.213   0.804  -1.015  1.00  0.00    +0.000 C 
ATOM     11  O   UNL     1       2.551   1.992  -1.009  1.00  0.00    +0.000 OA
BRANCH  10  12
ATOM     12  C   UNL     1       3.199  -0.305  -0.698  1.00  0.00    +0.000 C 
BRANCH  12  13
ATOM     13  C   UNL     1       4.457   0.242  -0.023  1.00  0.00    +0.000 C 
BRANCH  13  14
ATOM     14  C   UNL     1       5.393  -0.869   0.384  1.00  0.00    +0.000 A 
ATOM     15  C   UNL     1       6.274  -1.432  -0.550  1.00  0.00    +0.000 A 
ATOM     16  C   UNL     1       7.125  -2.473  -0.179  1.00  0.00    +0.000 A 
ATOM     17  C   UNL     1       7.102  -2.964   1.125  1.00  0.00    +0.000 A 
ATOM     18  C   UNL     1       6.227  -2.414   2.060  1.00  0.00    +0.000 A 
ATOM     19  C   UNL     1       5.374  -1.372   1.691  1.00  0.00    +0.000 A 
ENDBRANCH  13  14
ENDBRANCH  12  13
ENDBRANCH  10  12
ENDBRANCH   6  10
BRANCH   3  20
ATOM     20  O   UNL     1      -1.723  -2.418  -2.007  1.00  0.00    +0.000 OA
ATOM     21  C   UNL     1      -0.941  -3.588  -2.191  1.00  0.00    +0.000 C 
ENDBRANCH   3  20
BRANCH   2  22
ATOM     22  O   UNL     1      -3.320  -0.429  -1.914  1.00  0.00    +0.000 OA
ATOM     23  H   UNL     1      -3.350  -1.404  -2.025  1.00  0.00    +0.000 HD
ENDBRANCH   2  22
BRANCH   1  24
ATOM     24  C   UNL     1      -2.496   2.300  -1.858  1.00  0.00    +0.000 C 
BRANCH  24  27
ATOM     25  C   UNL     1      -2.273   5.078  -0.364  1.00  0.00    +0.000 C 
ATOM     26  C   UNL     1      -3.171   3.935   0.016  1.00  0.00    +0.000 C 
ATOM     27  C   UNL     1      -3.248   2.756  -0.632  1.00  0.00    +0.000 C 
ATOM     28  C   UNL     1      -4.019   4.193   1.234  1.00  0.00    +0.000 C 
ENDBRANCH  24  27
ENDBRANCH   1  24
BRANCH   3  29
ATOM     29  C   UNL     1      -1.137  -1.674   0.261  1.00  0.00    +0.000 C 
BRANCH  29  30
ATOM     30  C   UNL     1      -2.480  -2.083   0.821  1.00  0.00    +0.000 C 
ATOM     31  C   UNL     1      -3.268  -1.390   1.667  1.00  0.00    +0.000 C 
ATOM     32  C   UNL     1      -2.975  -0.015   2.204  1.00  0.00    +0.000 C 
ATOM     33  C   UNL     1      -4.576  -1.968   2.141  1.00  0.00    +0.000 C 
ENDBRANCH  29  30
ENDBRANCH   3  29
TORSDOF 11
