REMARK  Name = /srv/my_project/app/compsite/backup/Dave/CORINA_stuff/newPDBs/SANC00651.pdb
AUTHORGENERATED BY OPEN BABEL 2.3.2
REMARK  6 active torsions:
REMARK  status: ('A' for Active; 'I' for Inactive)
REMARK    1  A    between atoms: C_1  and  C_2
REMARK    2  A    between atoms: C_6  and  C_18
REMARK    3  A    between atoms: C_6  and  C_19
REMARK    4  A    between atoms: C_11  and  C_16
REMARK    5  A    between atoms: C_12  and  C_13
REMARK    6  A    between atoms: C_12  and  O_15
REMARK                            x       y       z     vdW  Elec       q    Type
REMARK                         _______ _______ _______ _____ _____    ______ ____
ROOT
ATOM      1  C   UNL     1       0.047  -1.482  -1.268  1.00  0.00    +0.000 C 
ATOM      2  C   UNL     1       0.401  -0.719   0.039  1.00  0.00    +0.000 C 
ATOM      3  C   UNL     1      -0.076  -1.592   1.250  1.00  0.00    +0.000 C 
ATOM      4  C   UNL     1      -1.321  -1.082   1.970  1.00  0.00    +0.000 C 
ATOM      5  C   UNL     1      -2.356  -0.570   0.987  1.00  0.00    +0.000 C 
ATOM      6  C   UNL     1      -1.871   0.691   0.231  1.00  0.00    +0.000 C 
ATOM      7  C   UNL     1      -0.301   0.694   0.062  1.00  0.00    +0.000 C 
ATOM      8  C   UNL     1       0.184   1.590  -1.104  1.00  0.00    +0.000 C 
ATOM      9  C   UNL     1       1.657   1.503  -1.383  1.00  0.00    +0.000 C 
ATOM     10  C   UNL     1       2.460   0.575  -0.833  1.00  0.00    +0.000 C 
ATOM     11  C   UNL     1       1.974  -0.481   0.130  1.00  0.00    +0.000 C 
ATOM     12  C   UNL     1      -2.268   1.940   1.063  1.00  0.00    +0.000 C 
ATOM     13  C   UNL     1      -2.660   0.787  -1.092  1.00  0.00    +0.000 C 
ENDROOT
BRANCH  11  14
ATOM     14  C   UNL     1       2.721  -1.823  -0.029  1.00  0.00    +0.000 C 
ATOM     15  O   UNL     1       3.134  -2.464   0.939  1.00  0.00    +0.000 OA
ENDBRANCH  11  14
BRANCH  11  16
ATOM     16  O   UNL     1       2.280   0.043   1.438  1.00  0.00    +0.000 OA
ATOM     17  H   UNL     1       2.763  -0.668   1.908  1.00  0.00    +0.000 HD
ENDBRANCH  11  16
BRANCH  10  18
ATOM     18  C   UNL     1       3.896   0.653  -1.202  1.00  0.00    +0.000 C 
ATOM     19  O   UNL     1       4.699  -0.236  -0.953  1.00  0.00    +0.000 OA
ENDBRANCH  10  18
TORSDOF 3
