REMARK  Name = [H][C@@]23C[C@]1(C=C(Br)C(=O)C[C@@]1([H])S2)c4c(N3)c(=O)c6[nH]cc5CCN=c4c56
REMARK  0 active torsions:
REMARK  status: ('A' for Active; 'I' for Inactive)
REMARK                            x       y       z     vdW  Elec       q    Type
REMARK                         _______ _______ _______ _____ _____    ______ ____
ROOT
ATOM      1  O   UNL     1      -3.734  -2.851  -1.391  1.00  0.00    +0.000 OA
ATOM      2  O   UNL     1       2.134   3.544   0.195  1.00  0.00    +0.000 OA
ATOM      3 BR   UNL     1      -3.141  -3.351   1.617  1.00  0.00    +0.000 Br
ATOM      4  C   UNL     1      -2.034  -0.834   1.014  1.00  0.00    +0.000 C 
ATOM      5  C   UNL     1       4.487  -0.079   0.142  1.00  0.00    +0.000 A 
ATOM      6  C   UNL     1       1.739  -2.698   0.613  1.00  0.00    +0.000 C 
ATOM      7  C   UNL     1       3.122  -2.334   0.018  1.00  0.00    +0.000 C 
ATOM      8  C   UNL     1      -3.260  -0.520  -1.571  1.00  0.00    +0.000 C 
ATOM      9  C   UNL     1      -2.437   1.577   0.681  1.00  0.00    +0.000 C 
ATOM     10  N   UNL     1       0.628  -1.723   0.389  1.00  0.00    +0.000 NA
ATOM     11  N   UNL     1      -0.621   2.995   0.066  1.00  0.00    +0.000 N 
ATOM     12  N   UNL     1       4.062   1.236   0.224  1.00  0.00    +0.000 N 
ATOM     13  S   UNL     1      -2.145   1.979  -1.902  1.00  0.00    +0.000 S 
ATOM     14  C   UNL     1      -2.740  -1.877   0.547  1.00  0.00    +0.000 C 
ATOM     15  C   UNL     1      -3.253  -1.853  -0.858  1.00  0.00    +0.000 C 
ATOM     16  C   UNL     1       3.369  -0.883   0.167  1.00  0.00    +0.000 A 
ATOM     17  C   UNL     1       0.313   1.967   0.233  1.00  0.00    +0.000 C 
ATOM     18  C   UNL     1      -0.093   0.668   0.294  1.00  0.00    +0.000 C 
ATOM     19  C   UNL     1       1.790   2.368   0.247  1.00  0.00    +0.000 C 
ATOM     20  C   UNL     1       0.895  -0.465   0.342  1.00  0.00    +0.000 C 
ATOM     21  C   UNL     1       2.692   1.259   0.275  1.00  0.00    +0.000 A 
ATOM     22  C   UNL     1       2.263  -0.037   0.303  1.00  0.00    +0.000 A 
ATOM     23  C   UNL     1      -2.006   2.709  -0.241  1.00  0.00    +0.000 C 
ATOM     24  C   UNL     1      -1.962   0.235  -1.315  1.00  0.00    +0.000 C 
ATOM     25  C   UNL     1      -1.607   0.361   0.193  1.00  0.00    +0.000 C 
ATOM     26  H   UNL     1      -0.219   3.826  -0.371  1.00  0.00    +0.000 HD
ATOM     27  H   UNL     1       4.655   2.056   0.189  1.00  0.00    +0.000 HD
ENDROOT
TORSDOF 0
