REMARK  Name = /srv/my_project/app/compsite/backup/Dave/CORINA_stuff/newPDBs/SANC00422.pdb
AUTHORGENERATED BY OPEN BABEL 2.3.2
REMARK  12 active torsions:
REMARK  status: ('A' for Active; 'I' for Inactive)
REMARK    1  A    between atoms: C_1  and  C_2
REMARK    2  A    between atoms: C_5  and  O_7
REMARK    3  A    between atoms: C_8  and  C_9
REMARK    4  A    between atoms: C_8  and  C_10
REMARK    5  A    between atoms: C_15  and  C_16
REMARK    6  A    between atoms: C_17  and  C_18
REMARK    7  A    between atoms: C_18  and  C_19
REMARK    8  A    between atoms: C_19  and  C_20
REMARK    9  A    between atoms: C_22  and  C_24
REMARK   10  A    between atoms: C_30  and  C_31
REMARK   11  A    between atoms: C_30  and  C_32
REMARK   12  A    between atoms: C_37  and  C_38
REMARK                            x       y       z     vdW  Elec       q    Type
REMARK                         _______ _______ _______ _____ _____    ______ ____
ROOT
ATOM      1  C   UNL     1      -0.460   0.574   0.717  1.00  0.00    +0.000 C 
ENDROOT
BRANCH   1  15
ATOM      2  C   UNL     1      -3.332   2.201   0.473  1.00  0.00    +0.000 C 
ATOM      3  C   UNL     1      -3.074   0.684   0.285  1.00  0.00    +0.000 C 
ATOM      4  C   UNL     1      -2.771   0.402  -1.210  1.00  0.00    +0.000 C 
ATOM      5  C   UNL     1      -3.989   0.552  -2.122  1.00  0.00    +0.000 C 
ATOM      6  C   UNL     1      -5.148  -0.342  -1.690  1.00  0.00    +0.000 C 
ATOM      7  C   UNL     1      -5.576  -0.147  -0.207  1.00  0.00    +0.000 C 
ATOM      8  C   UNL     1      -6.542  -1.315   0.146  1.00  0.00    +0.000 C 
ATOM      9  C   UNL     1      -6.387   1.152  -0.017  1.00  0.00    +0.000 C 
ATOM     10  C   UNL     1      -4.293  -0.237   0.694  1.00  0.00    +0.000 C 
ATOM     11  C   UNL     1      -4.532  -0.169   2.186  1.00  0.00    +0.000 C 
ATOM     12  C   UNL     1      -3.490  -0.061   3.022  1.00  0.00    +0.000 C 
ATOM     13  C   UNL     1      -2.121   0.010   2.529  1.00  0.00    +0.000 C 
ATOM     14  C   UNL     1      -1.086  -0.291   3.581  1.00  0.00    +0.000 C 
ATOM     15  C   UNL     1      -1.874   0.362   1.239  1.00  0.00    +0.000 C 
BRANCH   6  16
ATOM     16  O   UNL     1      -6.254  -0.112  -2.563  1.00  0.00    +0.000 OA
ATOM     17  H   UNL     1      -5.962  -0.308  -3.470  1.00  0.00    +0.000 HD
ENDBRANCH   6  16
ENDBRANCH   1  15
BRANCH   1  18
ATOM     18  C   UNL     1       0.203  -0.733   0.257  1.00  0.00    +0.000 C 
BRANCH  18  19
ATOM     19  C   UNL     1       1.445  -0.593  -0.673  1.00  0.00    +0.000 C 
ATOM     20  C   UNL     1       1.611  -1.897  -1.545  1.00  0.00    +0.000 C 
ATOM     21  C   UNL     1       1.279  -3.228  -0.853  1.00  0.00    +0.000 C 
ATOM     22  C   UNL     1       2.988  -2.014  -2.215  1.00  0.00    +0.000 C 
ATOM     23  C   UNL     1       3.598  -0.654  -2.479  1.00  0.00    +0.000 C 
ATOM     24  C   UNL     1       3.855   0.139  -1.189  1.00  0.00    +0.000 C 
ATOM     25  O   UNL     1       5.183  -0.172  -0.766  1.00  0.00    +0.000 OA
ATOM     26  C   UNL     1       5.903   0.810  -0.025  1.00  0.00    +0.000 C 
ATOM     27  C   UNL     1       6.435   1.891  -0.978  1.00  0.00    +0.000 C 
ATOM     28  C   UNL     1       7.118   0.048   0.533  1.00  0.00    +0.000 C 
ATOM     29  C   UNL     1       5.162   1.483   1.166  1.00  0.00    +0.000 C 
ATOM     30  O   UNL     1       5.618   1.502   2.312  1.00  0.00    +0.000 OA
ATOM     31  C   UNL     1       3.842   2.161   0.880  1.00  0.00    +0.000 C 
ATOM     32  C   UNL     1       2.642   1.221   0.752  1.00  0.00    +0.000 C 
ATOM     33  C   UNL     1       2.818  -0.116  -0.034  1.00  0.00    +0.000 C 
ATOM     34  C   UNL     1       3.319  -1.179   0.981  1.00  0.00    +0.000 C 
ENDBRANCH  18  19
ENDBRANCH   1  18
TORSDOF 4
