REMARK  Name = SANC00280.pdb
AUTHORGENERATED BY OPEN BABEL 2.3.2
REMARK  0 active torsions:
REMARK  status: ('A' for Active; 'I' for Inactive)
REMARK                            x       y       z     vdW  Elec       q    Type
REMARK                         _______ _______ _______ _____ _____    ______ ____
ROOT
ATOM      1  O   UNL     1      -4.196  -2.761  -0.633  1.00  0.00    +0.000 OA
ATOM      2  C   UNL     1      -3.499  -1.776  -0.393  1.00  0.00    +0.000 C 
ATOM      3  C   UNL     1      -3.338  -0.683  -1.426  1.00  0.00    +0.000 C 
ATOM      4  C   UNL     1      -1.974  -0.012  -1.325  1.00  0.00    +0.000 C 
ATOM      5  C   UNL     1      -1.652   0.503   0.104  1.00  0.00    +0.000 C 
ATOM      6  C   UNL     1      -2.487   1.774   0.342  1.00  0.00    +0.000 C 
ATOM      7  C   UNL     1      -1.915   2.969   0.543  1.00  0.00    +0.000 C 
ATOM      8  N   UNL     1      -0.562   3.118   0.552  1.00  0.00    +0.000 N 
ATOM      9  C   UNL     1       0.315   2.057   0.415  1.00  0.00    +0.000 C 
ATOM     10  C   UNL     1      -0.136   0.789   0.203  1.00  0.00    +0.000 C 
ATOM     11  C   UNL     1       0.817  -0.372   0.098  1.00  0.00    +0.000 C 
ATOM     12  N   UNL     1       0.512  -1.620  -0.005  1.00  0.00    +0.000 NA
ATOM     13  C   UNL     1       1.598  -2.646   0.073  1.00  0.00    +0.000 C 
ATOM     14  C   UNL     1       2.981  -2.243  -0.499  1.00  0.00    +0.000 C 
ATOM     15  C   UNL     1       3.277  -0.837  -0.143  1.00  0.00    +0.000 A 
ATOM     16  C   UNL     1       4.420  -0.076  -0.035  1.00  0.00    +0.000 A 
ATOM     17  N   UNL     1       4.037   1.220   0.265  1.00  0.00    +0.000 N 
ATOM     18  H   UNL     1       4.658   2.011   0.384  1.00  0.00    +0.000 HD
ATOM     19  C   UNL     1       2.668   1.278   0.321  1.00  0.00    +0.000 A 
ATOM     20  C   UNL     1       1.799   2.395   0.523  1.00  0.00    +0.000 C 
ATOM     21  O   UNL     1       2.175   3.542   0.747  1.00  0.00    +0.000 OA
ATOM     22  C   UNL     1       2.198   0.013   0.116  1.00  0.00    +0.000 A 
ATOM     23  C   UNL     1      -2.073  -0.504   1.159  1.00  0.00    +0.000 C 
ATOM     24  C   UNL     1      -2.869  -1.565   0.950  1.00  0.00    +0.000 C 
ATOM     25 BR   UNL     1      -3.272  -2.768   2.320  1.00  0.00    +0.000 Br
ATOM     26  H   UNL     1      -0.146   4.028   0.756  1.00  0.00    +0.000 HD
ENDROOT
TORSDOF 0
