REMARK  Name = SANCDB_00978_minRM1.pdb
AUTHORGENERATED BY OPEN BABEL 2.3.2
REMARK  5 active torsions:
REMARK  status: ('A' for Active; 'I' for Inactive)
REMARK    1  A    between atoms: C_1  and  O_2
REMARK    2  A    between atoms: O_2  and  C_3
REMARK    3  A    between atoms: C_11  and  O_12
REMARK    4  A    between atoms: C_13  and  O_14
REMARK    5  A    between atoms: O_14  and  C_15
REMARK                            x       y       z     vdW  Elec       q    Type
REMARK                         _______ _______ _______ _____ _____    ______ ____
ROOT
ATOM      1  C   UNL     1       3.333   0.321  -0.627  1.00  0.00    +0.000 A 
ATOM      2  C   UNL     1       2.067   0.899  -0.742  1.00  0.00    +0.000 A 
ATOM      3  C   UNL     1       0.922   0.157  -0.431  1.00  0.00    +0.000 A 
ATOM      4  C   UNL     1       1.033  -1.160  -0.004  1.00  0.00    +0.000 A 
ATOM      5  O   UNL     1      -0.037  -1.951   0.320  1.00  0.00    +0.000 OA
ATOM      6  C   UNL     1      -1.300  -1.422   0.197  1.00  0.00    +0.000 A 
ATOM      7  C   UNL     1      -2.346  -2.300   0.506  1.00  0.00    +0.000 A 
ATOM      8  C   UNL     1      -3.670  -1.881   0.394  1.00  0.00    +0.000 A 
ATOM      9  C   UNL     1      -3.935  -0.583  -0.017  1.00  0.00    +0.000 A 
ATOM     10  C   UNL     1      -2.901   0.319  -0.290  1.00  0.00    +0.000 A 
ATOM     11  C   UNL     1      -1.570  -0.110  -0.209  1.00  0.00    +0.000 A 
ATOM     12  C   UNL     1      -0.417   0.754  -0.544  1.00  0.00    +0.000 A 
ATOM     13  O   UNL     1      -0.537   1.920  -0.895  1.00  0.00    +0.000 OA
ATOM     14  C   UNL     1       2.296  -1.741   0.113  1.00  0.00    +0.000 A 
ATOM     15  C   UNL     1       3.444  -1.003  -0.197  1.00  0.00    +0.000 A 
ENDROOT
BRANCH   1  17
ATOM     16  C   UNL     1       5.683   0.606  -0.870  1.00  0.00    +0.000 C 
ATOM     17  O   UNL     1       4.370   1.147  -0.959  1.00  0.00    +0.000 OA
ENDBRANCH   1  17
BRANCH   9  18
ATOM     18  O   UNL     1      -5.241  -0.205  -0.160  1.00  0.00    +0.000 OA
ATOM     19  H   UNL     1      -5.217   0.671  -0.590  1.00  0.00    +0.000 HD
ENDBRANCH   9  18
BRANCH  10  20
ATOM     20  O   UNL     1      -3.271   1.575  -0.701  1.00  0.00    +0.000 OA
ATOM     21  C   UNL     1      -3.242   2.490   0.399  1.00  0.00    +0.000 C 
ENDBRANCH  10  20
TORSDOF 3
