REMARK  Name = /srv/my_project/app/compsite/backup/Dave/CORINA_stuff/newPDBs/SANC00299.pdb
AUTHORGENERATED BY OPEN BABEL 2.3.2
REMARK  6 active torsions:
REMARK  status: ('A' for Active; 'I' for Inactive)
REMARK    1  A    between atoms: C_18  and  C_19
REMARK    2  A    between atoms: C_22  and  O_24
REMARK    3  A    between atoms: O_24  and  C_25
REMARK    4  A    between atoms: C_25  and  C_27
REMARK    5  A    between atoms: C_27  and  C_29
REMARK    6  A    between atoms: C_29  and  O_30
REMARK                            x       y       z     vdW  Elec       q    Type
REMARK                         _______ _______ _______ _____ _____    ______ ____
ROOT
ATOM      1  C   UNL     1      -0.530   1.087   1.051  1.00  0.00    +0.000 C 
ATOM      2  C   UNL     1      -0.627   2.329   1.863  1.00  0.00    +0.000 C 
ATOM      3  C   UNL     1       0.313   3.209   2.222  1.00  0.00    +0.000 C 
ATOM      4  C   UNL     1      -2.062   2.474   2.232  1.00  0.00    +0.000 C 
ATOM      5  O   UNL     1      -2.527   3.233   3.059  1.00  0.00    +0.000 OA
ATOM      6  O   UNL     1      -2.767   1.576   1.477  1.00  0.00    +0.000 OA
ATOM      7  C   UNL     1      -1.910   1.105   0.433  1.00  0.00    +0.000 C 
ATOM      8  C   UNL     1      -2.290  -0.298  -0.088  1.00  0.00    +0.000 C 
ATOM      9  C   UNL     1      -3.535  -0.336  -0.955  1.00  0.00    +0.000 C 
ATOM     10  C   UNL     1      -4.394   0.661  -1.225  1.00  0.00    +0.000 C 
ATOM     11  C   UNL     1      -3.859  -1.671  -1.525  1.00  0.00    +0.000 C 
ATOM     12  O   UNL     1      -4.999  -2.101  -1.623  1.00  0.00    +0.000 OA
ATOM     13  O   UNL     1      -2.768  -2.377  -1.909  1.00  0.00    +0.000 OA
ATOM     14  C   UNL     1      -1.551  -1.647  -2.122  1.00  0.00    +0.000 C 
ATOM     15  C   UNL     1      -1.059  -0.972  -0.816  1.00  0.00    +0.000 C 
ATOM     16  C   UNL     1       0.008   0.100  -1.217  1.00  0.00    +0.000 C 
ATOM     17  C   UNL     1       0.530   0.961  -0.042  1.00  0.00    +0.000 C 
ENDROOT
BRANCH  15  18
ATOM     18  C   UNL     1      -0.332  -2.057  -0.006  1.00  0.00    +0.000 C 
ATOM     19  C   UNL     1      -0.628  -2.587   1.188  1.00  0.00    +0.000 C 
ENDBRANCH  15  18
BRANCH  17  20
ATOM     20  O   UNL     1       1.689   0.346   0.554  1.00  0.00    +0.000 OA
BRANCH  20  21
ATOM     21  C   UNL     1       2.867   0.532  -0.096  1.00  0.00    +0.000 C 
ATOM     22  O   UNL     1       3.014   1.198  -1.109  1.00  0.00    +0.000 OA
BRANCH  21  23
ATOM     23  C   UNL     1       3.969  -0.208   0.575  1.00  0.00    +0.000 C 
ATOM     24  C   UNL     1       3.897  -0.565   1.870  1.00  0.00    +0.000 C 
BRANCH  23  25
ATOM     25  C   UNL     1       5.170  -0.468  -0.277  1.00  0.00    +0.000 C 
BRANCH  25  26
ATOM     26  O   UNL     1       4.909  -1.599  -1.099  1.00  0.00    +0.000 OA
ATOM     27  H   UNL     1       5.650  -1.667  -1.724  1.00  0.00    +0.000 HD
ENDBRANCH  25  26
ENDBRANCH  23  25
ENDBRANCH  21  23
ENDBRANCH  20  21
ENDBRANCH  17  20
TORSDOF 6
