REMARK  Name = SANCDB_00796_minRM1.pdb
AUTHORGENERATED BY OPEN BABEL 2.3.2
REMARK  5 active torsions:
REMARK  status: ('A' for Active; 'I' for Inactive)
REMARK    1  A    between atoms: C_1  and  C_2
REMARK    2  A    between atoms: C_5  and  C_6
REMARK    3  A    between atoms: C_7  and  C_8
REMARK    4  A    between atoms: C_7  and  O_9
REMARK    5  A    between atoms: N_23  and  C_24
REMARK                            x       y       z     vdW  Elec       q    Type
REMARK                         _______ _______ _______ _____ _____    ______ ____
ROOT
ATOM      1  C   UNL     1      -3.599   3.653  -1.603  1.00  0.00    +0.000 C 
ATOM      2  C   UNL     1      -2.190   3.359  -1.201  1.00  0.00    +0.000 C 
ATOM      3  C   UNL     1      -1.690   2.173  -0.809  1.00  0.00    +0.000 C 
ATOM      4  C   UNL     1      -2.400   0.843  -0.687  1.00  0.00    +0.000 C 
ATOM      5  C   UNL     1      -2.729   0.454   0.784  1.00  0.00    +0.000 C 
ATOM      6  C   UNL     1      -3.997   1.206   1.223  1.00  0.00    +0.000 C 
ATOM      7  C   UNL     1      -2.844  -1.096   0.968  1.00  0.00    +0.000 C 
ATOM      8  C   UNL     1      -3.629  -1.516   2.218  1.00  0.00    +0.000 C 
ATOM      9  C   UNL     1      -1.416  -1.687   1.145  1.00  0.00    +0.000 C 
ATOM     10  O   UNL     1      -0.751  -1.631   2.170  1.00  0.00    +0.000 OA
ATOM     11  O   UNL     1      -0.990  -2.256  -0.019  1.00  0.00    +0.000 OA
ATOM     12  C   UNL     1       0.313  -2.885  -0.002  1.00  0.00    +0.000 C 
ATOM     13  C   UNL     1       1.468  -1.873   0.050  1.00  0.00    +0.000 C 
ATOM     14  C   UNL     1       1.272  -0.879  -1.084  1.00  0.00    +0.000 C 
ATOM     15  O   UNL     1       0.969  -1.260  -2.219  1.00  0.00    +0.000 OA
ATOM     16  C   UNL     1       1.508   0.592  -0.762  1.00  0.00    +0.000 C 
ATOM     17  O   UNL     1       0.356   1.256  -1.298  1.00  0.00    +0.000 OA
ATOM     18  C   UNL     1      -0.242   2.146  -0.475  1.00  0.00    +0.000 C 
ATOM     19  O   UNL     1       0.269   2.752   0.450  1.00  0.00    +0.000 OA
ATOM     20  C   UNL     1       2.800   1.074  -1.419  1.00  0.00    +0.000 C 
ATOM     21  C   UNL     1       3.979   0.119  -1.171  1.00  0.00    +0.000 C 
ATOM     22  N   UNL     1       3.978  -0.294   0.237  1.00  0.00    +0.000 NA
ATOM     23  C   UNL     1       5.033   0.389   0.988  1.00  0.00    +0.000 C 
ATOM     24  C   UNL     1       4.028  -1.744   0.455  1.00  0.00    +0.000 C 
ATOM     25  C   UNL     1       2.840  -2.551  -0.116  1.00  0.00    +0.000 C 
ENDROOT
BRANCH   7  26
ATOM     26  O   UNL     1      -3.553  -1.662  -0.138  1.00  0.00    +0.000 OA
ATOM     27  H   UNL     1      -2.884  -1.946  -0.791  1.00  0.00    +0.000 HD
ENDBRANCH   7  26
TORSDOF 1
