REMARK  Name = /srv/my_project/app/compsite/backup/Dave/CORINA_stuff/newPDBs/SANC00251.pdb
AUTHORGENERATED BY OPEN BABEL 2.3.2
REMARK  6 active torsions:
REMARK  status: ('A' for Active; 'I' for Inactive)
REMARK    1  A    between atoms: N_1  and  C_2
REMARK    2  A    between atoms: N_10  and  C1*_11
REMARK    3  A    between atoms: C4*_13  and  C5*_15
REMARK    4  A    between atoms: C5*_15  and  O5*_16
REMARK    5  A    between atoms: C3*_17  and  O3*_19
REMARK    6  A    between atoms: C2*_20  and  O2*_22
REMARK                            x       y       z     vdW  Elec       q    Type
REMARK                         _______ _______ _______ _____ _____    ______ ____
ROOT
ATOM      1  C   UNL     1       2.728   1.733   1.955  1.00  0.00    +0.000 C 
ATOM      2  C   UNL     1       3.790   1.339   1.218  1.00  0.00    +0.000 C 
ATOM      3  C   UNL     1       3.683   0.629  -0.085  1.00  0.00    +0.000 C 
ATOM      4  N   UNL     1       4.662   0.313  -0.859  1.00  0.00    +0.000 NA
ATOM      5  C   UNL     1       4.342  -0.259  -2.207  1.00  0.00    +0.000 C 
ATOM      6  C   UNL     1       3.056  -1.121  -2.320  1.00  0.00    +0.000 C 
ATOM      7  C   UNL     1       1.974  -0.519  -1.511  1.00  0.00    +0.000 A 
ATOM      8  C   UNL     1       0.599  -0.595  -1.500  1.00  0.00    +0.000 A 
ATOM      9  N   UNL     1       0.137   0.146  -0.420  1.00  0.00    +0.000 N 
ATOM     10  C   UNL     1       1.219   0.673   0.251  1.00  0.00    +0.000 A 
ATOM     11  C   UNL     1       1.296   1.448   1.458  1.00  0.00    +0.000 C 
ATOM     12  O   UNL     1       0.323   1.883   2.071  1.00  0.00    +0.000 OA
ATOM     13  C   UNL     1       2.338   0.299  -0.440  1.00  0.00    +0.000 A 
ENDROOT
BRANCH   9  14
ATOM     14  C1* UNL     1      -1.253   0.332  -0.027  1.00  0.00    +0.000 C 
ATOM     15  O4* UNL     1      -2.136   0.102  -1.162  1.00  0.00    +0.000 OA
ATOM     16  C4* UNL     1      -3.223  -0.709  -0.689  1.00  0.00    +0.000 C 
ATOM     17  C3* UNL     1      -3.229  -0.581   0.834  1.00  0.00    +0.000 C 
ATOM     18  C2* UNL     1      -1.739  -0.559   1.126  1.00  0.00    +0.000 C 
BRANCH  17  19
ATOM     19  O3* UNL     1      -3.879  -1.667   1.485  1.00  0.00    +0.000 OA
ATOM     20  H3* UNL     1      -4.754  -1.750   1.047  1.00  0.00    +0.000 HD
ENDBRANCH  17  19
BRANCH  18  21
ATOM     21  O2* UNL     1      -1.244  -1.906   1.064  1.00  0.00    +0.000 OA
ATOM     22  H2* UNL     1      -1.914  -2.444   1.535  1.00  0.00    +0.000 HD
ENDBRANCH  18  21
BRANCH  16  23
ATOM     23  C5* UNL     1      -4.545  -0.278  -1.315  1.00  0.00    +0.000 C 
BRANCH  23  24
ATOM     24  O5* UNL     1      -5.624  -1.006  -0.734  1.00  0.00    +0.000 OA
ATOM     25  H5* UNL     1      -6.422  -0.775  -1.245  1.00  0.00    +0.000 HD
ENDBRANCH  23  24
ENDBRANCH  16  23
ENDBRANCH   9  14
BRANCH   1  26
ATOM     26  N   UNL     1       2.838   2.413   3.163  1.00  0.00    +0.000 N 
ATOM     27  H   UNL     1       1.964   2.889   3.399  1.00  0.00    +0.000 HD
ATOM     28  H   UNL     1       3.651   3.018   3.224  1.00  0.00    +0.000 HD
ENDBRANCH   1  26
TORSDOF 6
