REMARK  Name = /srv/my_project/app/compsite/backup/Dave/CORINA_stuff/newPDBs/SANC00287.pdb
AUTHORGENERATED BY OPEN BABEL 2.3.2
REMARK  10 active torsions:
REMARK  status: ('A' for Active; 'I' for Inactive)
REMARK    1  A    between atoms: C_1  and  C_2
REMARK    2  A    between atoms: C_2  and  C_3
REMARK    3  A    between atoms: C_2  and  C_4
REMARK    4  A    between atoms: C_4  and  C_5
REMARK    5  A    between atoms: C_4  and  C_6
REMARK    6  A    between atoms: C_7  and  C_8
REMARK    7  A    between atoms: C_8  and  O_35
REMARK    8  A    between atoms: C_15  and  C_31
REMARK    9  A    between atoms: C_23  and  C_30
REMARK   10  A    between atoms: C_26  and  N_29
REMARK                            x       y       z     vdW  Elec       q    Type
REMARK                         _______ _______ _______ _____ _____    ______ ____
ROOT
ATOM      1  C   UNL     1      -2.819   2.828   0.343  1.00  0.00    +0.000 C 
ATOM      2  C   UNL     1      -1.304   2.706   0.435  1.00  0.00    +0.000 C 
ATOM      3  C   UNL     1      -1.018   3.288   1.828  1.00  0.00    +0.000 C 
ATOM      4  C   UNL     1       0.227   2.568   2.373  1.00  0.00    +0.000 C 
ATOM      5  C   UNL     1       0.737   1.785   1.166  1.00  0.00    +0.000 C 
ATOM      6  C   UNL     1      -0.565   1.334   0.458  1.00  0.00    +0.000 C 
ATOM      7  C   UNL     1      -0.172   0.804  -0.932  1.00  0.00    +0.000 C 
ATOM      8  C   UNL     1       0.876  -0.322  -0.846  1.00  0.00    +0.000 C 
ATOM      9  C   UNL     1       2.132   0.067  -0.018  1.00  0.00    +0.000 C 
ATOM     10  C   UNL     1       1.740   0.646   1.380  1.00  0.00    +0.000 C 
ATOM     11  C   UNL     1       2.976   1.125   2.150  1.00  0.00    +0.000 C 
ATOM     12  C   UNL     1       4.034   0.033   2.273  1.00  0.00    +0.000 C 
ATOM     13  C   UNL     1       4.431  -0.511   0.895  1.00  0.00    +0.000 C 
ATOM     14  C   UNL     1       3.220  -1.069   0.086  1.00  0.00    +0.000 C 
ATOM     15  C   UNL     1       3.713  -1.478  -1.341  1.00  0.00    +0.000 C 
ATOM     16  C   UNL     1       5.237  -1.573  -1.501  1.00  0.00    +0.000 C 
ATOM     17  C   UNL     1       5.955  -2.206  -0.309  1.00  0.00    +0.000 C 
ATOM     18  C   UNL     1       5.587  -1.521   1.019  1.00  0.00    +0.000 C 
ATOM     19  C   UNL     1       2.615  -2.322   0.772  1.00  0.00    +0.000 C 
ATOM     20  C   UNL     1      -1.321   0.226   1.236  1.00  0.00    +0.000 C 
ATOM     21  O   UNL     1      -2.161   2.998   2.634  1.00  0.00    +0.000 OA
ATOM     22  C   UNL     1      -3.240   2.749   1.826  1.00  0.00    +0.000 C 
ATOM     23  O   UNL     1      -4.371   2.569   2.256  1.00  0.00    +0.000 OA
ENDROOT
BRANCH  17  24
ATOM     24  N   UNL     1       5.668  -3.640  -0.254  1.00  0.00    +0.000 NA
ATOM     25  H   UNL     1       6.206  -4.069   0.498  1.00  0.00    +0.000 HD
ATOM     26  H   UNL     1       5.975  -4.087  -1.117  1.00  0.00    +0.000 HD
ENDBRANCH  17  24
BRANCH   1  28
ATOM     27  C   UNL     1      -4.436   1.041  -0.511  1.00  0.00    +0.000 C 
ATOM     28  C   UNL     1      -3.456   1.943  -0.688  1.00  0.00    +0.000 C 
BRANCH  27  29
ATOM     29  C   UNL     1      -5.006   0.191  -1.629  1.00  0.00    +0.000 C 
ATOM     30  C   UNL     1      -6.527   0.369  -1.672  1.00  0.00    +0.000 C 
BRANCH  29  32
ATOM     31  C   UNL     1      -4.892  -2.095  -2.756  1.00  0.00    +0.000 C 
ATOM     32  C   UNL     1      -4.541  -1.286  -1.503  1.00  0.00    +0.000 C 
ATOM     33  C   UNL     1      -5.074  -2.011  -0.262  1.00  0.00    +0.000 C 
ENDBRANCH  29  32
ENDBRANCH  27  29
ENDBRANCH   1  28
BRANCH   1  34
ATOM     34  O   UNL     1      -3.116   4.170  -0.087  1.00  0.00    +0.000 OA
ATOM     35  H   UNL     1      -4.088   4.255  -0.043  1.00  0.00    +0.000 HD
ENDBRANCH   1  34
TORSDOF 5
