REMARK  Name = SANCDB_00797_minRM1.pdb
AUTHORGENERATED BY OPEN BABEL 2.3.2
REMARK  5 active torsions:
REMARK  status: ('A' for Active; 'I' for Inactive)
REMARK    1  A    between atoms: O_1  and  C_2
REMARK    2  A    between atoms: C_2  and  C_3
REMARK    3  A    between atoms: C_6  and  C_7
REMARK    4  A    between atoms: C_8  and  C_9
REMARK    5  A    between atoms: C_8  and  O_10
REMARK                            x       y       z     vdW  Elec       q    Type
REMARK                         _______ _______ _______ _____ _____    ______ ____
ROOT
ATOM      1  C   UNL     1      -1.715   3.060   0.129  1.00  0.00    +0.000 C 
ATOM      2  C   UNL     1      -1.109   1.855   0.111  1.00  0.00    +0.000 C 
ATOM      3  C   UNL     1      -1.655   0.596  -0.518  1.00  0.00    +0.000 C 
ATOM      4  C   UNL     1      -2.134  -0.441   0.532  1.00  0.00    +0.000 C 
ATOM      5  C   UNL     1      -3.473   0.015   1.136  1.00  0.00    +0.000 C 
ATOM      6  C   UNL     1      -2.219  -1.857  -0.099  1.00  0.00    +0.000 C 
ATOM      7  C   UNL     1      -2.777  -2.916   0.858  1.00  0.00    +0.000 C 
ATOM      8  C   UNL     1      -0.831  -2.360  -0.558  1.00  0.00    +0.000 C 
ATOM      9  O   UNL     1      -0.657  -2.908  -1.643  1.00  0.00    +0.000 OA
ATOM     10  O   UNL     1       0.115  -2.174   0.400  1.00  0.00    +0.000 OA
ATOM     11  C   UNL     1       1.395  -2.738   0.120  1.00  0.00    +0.000 C 
ATOM     12  C   UNL     1       2.347  -1.716  -0.399  1.00  0.00    +0.000 C 
ATOM     13  C   UNL     1       2.885  -1.685  -1.624  1.00  0.00    +0.000 C 
ATOM     14  C   UNL     1       3.970  -0.671  -1.696  1.00  0.00    +0.000 C 
ATOM     15  N   UNL     1       4.249  -0.345  -0.281  1.00  0.00    +0.000 NA
ATOM     16  C   UNL     1       3.008  -0.700   0.482  1.00  0.00    +0.000 C 
ATOM     17  C   UNL     1       2.290   0.643   0.790  1.00  0.00    +0.000 C 
ATOM     18  O   UNL     1       0.928   0.704   0.342  1.00  0.00    +0.000 OA
ATOM     19  C   UNL     1       0.232   1.790   0.772  1.00  0.00    +0.000 C 
ATOM     20  O   UNL     1       0.645   2.627   1.562  1.00  0.00    +0.000 OA
ATOM     21  C   UNL     1       3.123   1.700   0.062  1.00  0.00    +0.000 C 
ATOM     22  C   UNL     1       4.493   1.076  -0.056  1.00  0.00    +0.000 C 
ENDROOT
BRANCH   6  23
ATOM     23  O   UNL     1      -3.104  -1.804  -1.228  1.00  0.00    +0.000 OA
ATOM     24  H   UNL     1      -2.842  -2.535  -1.823  1.00  0.00    +0.000 HD
ENDBRANCH   6  23
BRANCH   1  25
ATOM     25  C   UNL     1      -3.046   3.427  -0.442  1.00  0.00    +0.000 C 
BRANCH  25  26
ATOM     26  O   UNL     1      -3.905   3.816   0.618  1.00  0.00    +0.000 OA
ATOM     27  H   UNL     1      -3.446   4.495   1.139  1.00  0.00    +0.000 HD
ENDBRANCH  25  26
ENDBRANCH   1  25
TORSDOF 3
