REMARK  Name = SANCDB_01078_minRM1.pdb
AUTHORGENERATED BY OPEN BABEL 2.3.2
REMARK  10 active torsions:
REMARK  status: ('A' for Active; 'I' for Inactive)
REMARK    1  A    between atoms: C_1  and  C_2
REMARK    2  A    between atoms: C_2  and  C_3
REMARK    3  A    between atoms: C_2  and  C_4
REMARK    4  A    between atoms: C_8  and  C_31
REMARK    5  A    between atoms: C_11  and  C_30
REMARK    6  A    between atoms: C_12  and  C_29
REMARK    7  A    between atoms: C_15  and  C_28
REMARK    8  A    between atoms: C_23  and  O_27
REMARK    9  A    between atoms: C_24  and  C_25
REMARK   10  A    between atoms: C_24  and  C_26
REMARK                            x       y       z     vdW  Elec       q    Type
REMARK                         _______ _______ _______ _____ _____    ______ ____
ROOT
ATOM      1  C   UNL     1      -4.833   0.352  -0.123  1.00  0.00    +0.000 C 
ATOM      2  C   UNL     1      -4.823   1.200  -1.432  1.00  0.00    +0.000 C 
ATOM      3  C   UNL     1      -3.352   1.390  -1.838  1.00  0.00    +0.000 C 
ATOM      4  C   UNL     1      -2.595   0.494  -0.863  1.00  0.00    +0.000 C 
ATOM      5  C   UNL     1      -3.404   0.618   0.469  1.00  0.00    +0.000 C 
ATOM      6  C   UNL     1      -2.878  -0.432   1.471  1.00  0.00    +0.000 C 
ATOM      7  C   UNL     1      -1.329  -0.498   1.564  1.00  0.00    +0.000 C 
ATOM      8  C   UNL     1      -0.588  -0.630   0.188  1.00  0.00    +0.000 C 
ATOM      9  C   UNL     1      -1.047   0.570  -0.758  1.00  0.00    +0.000 C 
ATOM     10  C   UNL     1      -0.374   0.390  -2.146  1.00  0.00    +0.000 C 
ATOM     11  C   UNL     1       1.163   0.356  -2.094  1.00  0.00    +0.000 C 
ATOM     12  C   UNL     1       1.812  -0.545  -0.997  1.00  0.00    +0.000 C 
ATOM     13  C   UNL     1       0.978  -0.535   0.345  1.00  0.00    +0.000 C 
ATOM     14  C   UNL     1       1.603  -1.501   1.371  1.00  0.00    +0.000 C 
ATOM     15  C   UNL     1       3.092  -1.323   1.490  1.00  0.00    +0.000 C 
ATOM     16  C   UNL     1       3.858  -0.609   0.639  1.00  0.00    +0.000 C 
ATOM     17  C   UNL     1       3.242   0.042  -0.611  1.00  0.00    +0.000 C 
ATOM     18  C   UNL     1       4.251   0.016  -1.775  1.00  0.00    +0.000 C 
ATOM     19  C   UNL     1       5.556   0.741  -1.450  1.00  0.00    +0.000 C 
ATOM     20  C   UNL     1       5.844   0.858   0.048  1.00  0.00    +0.000 C 
ATOM     21  C   UNL     1       5.367  -0.372   0.881  1.00  0.00    +0.000 C 
ATOM     22  C   UNL     1       6.154  -1.647   0.506  1.00  0.00    +0.000 C 
ATOM     23  C   UNL     1       5.663  -0.067   2.373  1.00  0.00    +0.000 C 
ATOM     24  C   UNL     1       2.000  -1.964  -1.602  1.00  0.00    +0.000 C 
ATOM     25  C   UNL     1      -0.604   1.971  -0.239  1.00  0.00    +0.000 C 
ATOM     26  C   UNL     1      -0.996  -2.035  -0.358  1.00  0.00    +0.000 C 
ATOM     27  C   UNL     1      -3.386   2.004   1.158  1.00  0.00    +0.000 C 
ENDROOT
BRANCH   1  29
ATOM     28  C   UNL     1      -7.372   0.276  -0.064  1.00  0.00    +0.000 C 
ATOM     29  C   UNL     1      -6.100   0.617   0.730  1.00  0.00    +0.000 C 
ATOM     30  C   UNL     1      -6.119  -0.180   2.035  1.00  0.00    +0.000 C 
ENDBRANCH   1  29
BRANCH  20  31
ATOM     31  O   UNL     1       7.234   1.137   0.225  1.00  0.00    +0.000 OA
ATOM     32  H   UNL     1       7.744   0.428  -0.202  1.00  0.00    +0.000 HD
ENDBRANCH  20  31
TORSDOF 2
