REMARK  Name = /srv/my_project/app/compsite/backup/Dave/CORINA_stuff/newPDBs/SANC00493.pdb
AUTHORGENERATED BY OPEN BABEL 2.3.2
REMARK  26 active torsions:
REMARK  status: ('A' for Active; 'I' for Inactive)
REMARK    1  A    between atoms: C_2  and  O_3
REMARK    2  A    between atoms: O_3  and  C_4
REMARK    3  A    between atoms: C_8  and  C_9
REMARK    4  A    between atoms: C_19  and  O_21
REMARK    5  A    between atoms: O_21  and  C_22
REMARK    6  A    between atoms: C_24  and  C_25
REMARK    7  A    between atoms: C_26  and  C_28
REMARK    8  A    between atoms: C_29  and  C_30
REMARK    9  A    between atoms: C_29  and  C_31
REMARK   10  A    between atoms: C_32  and  O_33
REMARK   11  A    between atoms: C_44  and  C_46
REMARK   12  A    between atoms: C_46  and  O_47
REMARK   13  A    between atoms: C_48  and  O_49
REMARK   14  A    between atoms: C_50  and  O_52
REMARK   15  A    between atoms: C_53  and  O_55
REMARK   16  A    between atoms: O_55  and  C_56
REMARK   17  A    between atoms: C_58  and  C_59
REMARK   18  A    between atoms: C_59  and  O_60
REMARK   19  A    between atoms: C_61  and  O_63
REMARK   20  A    between atoms: C_64  and  O_65
REMARK   21  A    between atoms: C_66  and  O_68
REMARK   22  A    between atoms: O_68  and  C_69
REMARK   23  A    between atoms: C_71  and  C_72
REMARK   24  A    between atoms: C_73  and  O_75
REMARK   25  A    between atoms: C_76  and  O_77
REMARK   26  A    between atoms: C_78  and  O_79
REMARK                            x       y       z     vdW  Elec       q    Type
REMARK                         _______ _______ _______ _____ _____    ______ ____
ROOT
ATOM      1  C   UNL     1      -3.404   3.508  -0.263  1.00  0.00    +0.000 C 
ATOM      2  O   UNL     1      -3.150   4.843   0.183  1.00  0.00    +0.000 OA
ATOM      3  C   UNL     1      -3.618   5.809  -0.763  1.00  0.00    +0.000 C 
ATOM      4  C   UNL     1      -5.146   5.740  -0.821  1.00  0.00    +0.000 C 
ATOM      5  C   UNL     1      -5.614   4.322  -1.205  1.00  0.00    +0.000 C 
ATOM      6  C   UNL     1      -4.926   3.224  -0.365  1.00  0.00    +0.000 C 
ENDROOT
BRANCH   4   7
ATOM      7  O   UNL     1      -5.673   6.700  -1.749  1.00  0.00    +0.000 OA
ATOM      8  H   UNL     1      -6.569   6.384  -1.996  1.00  0.00    +0.000 HD
ENDBRANCH   4   7
BRANCH   5   9
ATOM      9  O   UNL     1      -7.048   4.296  -1.042  1.00  0.00    +0.000 OA
ATOM     10  H   UNL     1      -7.258   4.484  -0.106  1.00  0.00    +0.000 HD
ENDBRANCH   5   9
BRANCH   6  11
ATOM     11  O   UNL     1      -5.053   1.904  -0.933  1.00  0.00    +0.000 OA
BRANCH  11  12
ATOM     12  C   UNL     1      -6.371   1.383  -1.018  1.00  0.00    +0.000 C 
ATOM     13  O   UNL     1      -6.833   1.576  -2.356  1.00  0.00    +0.000 OA
ATOM     14  C   UNL     1      -8.200   1.167  -2.521  1.00  0.00    +0.000 C 
ATOM     15  C   UNL     1      -8.360  -0.343  -2.241  1.00  0.00    +0.000 C 
ATOM     16  C   UNL     1      -7.787  -0.679  -0.849  1.00  0.00    +0.000 C 
ATOM     17  C   UNL     1      -6.364  -0.124  -0.643  1.00  0.00    +0.000 C 
BRANCH  16  18
ATOM     18  O   UNL     1      -7.787  -2.107  -0.667  1.00  0.00    +0.000 OA
ATOM     19  H   UNL     1      -6.913  -2.409  -0.994  1.00  0.00    +0.000 HD
ENDBRANCH  16  18
BRANCH  15  20
ATOM     20  O   UNL     1      -7.691  -1.124  -3.248  1.00  0.00    +0.000 OA
ATOM     21  H   UNL     1      -7.801  -2.065  -2.974  1.00  0.00    +0.000 HD
ENDBRANCH  15  20
BRANCH  17  22
ATOM     22  O   UNL     1      -5.497  -0.920  -1.476  1.00  0.00    +0.000 OA
BRANCH  22  23
ATOM     23  C   UNL     1      -4.128  -0.964  -1.053  1.00  0.00    +0.000 C 
ATOM     24  O   UNL     1      -4.014  -1.794   0.105  1.00  0.00    +0.000 OA
ATOM     25  C   UNL     1      -3.005  -2.806   0.014  1.00  0.00    +0.000 C 
ATOM     26  C   UNL     1      -3.006  -3.571   1.341  1.00  0.00    +0.000 C 
ATOM     27  C   UNL     1      -3.276  -3.742  -1.181  1.00  0.00    +0.000 C 
ATOM     28  C   UNL     1      -3.458  -2.957  -2.493  1.00  0.00    +0.000 C 
ATOM     29  C   UNL     1      -3.321  -1.444  -2.281  1.00  0.00    +0.000 C 
BRANCH  27  30
ATOM     30  O   UNL     1      -2.191  -4.670  -1.322  1.00  0.00    +0.000 OA
ATOM     31  H   UNL     1      -2.466  -5.321  -1.998  1.00  0.00    +0.000 HD
ENDBRANCH  27  30
BRANCH  28  32
ATOM     32  O   UNL     1      -4.735  -3.295  -3.062  1.00  0.00    +0.000 OA
ATOM     33  H   UNL     1      -4.932  -2.594  -3.709  1.00  0.00    +0.000 HD
ENDBRANCH  28  32
BRANCH  29  34
ATOM     34  O   UNL     1      -3.714  -0.752  -3.482  1.00  0.00    +0.000 OA
ATOM     35  H   UNL     1      -4.611  -0.390  -3.311  1.00  0.00    +0.000 HD
ENDBRANCH  29  34
ENDBRANCH  22  23
ENDBRANCH  17  22
BRANCH  14  36
ATOM     36  C   UNL     1      -8.646   1.541  -3.938  1.00  0.00    +0.000 C 
BRANCH  36  37
ATOM     37  O   UNL     1     -10.050   1.345  -4.085  1.00  0.00    +0.000 OA
ATOM     38  H   UNL     1     -10.220   1.300  -5.044  1.00  0.00    +0.000 HD
ENDBRANCH  36  37
ENDBRANCH  14  36
ENDBRANCH  11  12
ENDBRANCH   6  11
BRANCH   3  39
ATOM     39  C   UNL     1      -3.138   7.204  -0.339  1.00  0.00    +0.000 C 
BRANCH  39  40
ATOM     40  O   UNL     1      -3.405   8.185  -1.336  1.00  0.00    +0.000 OA
ATOM     41  H   UNL     1      -4.319   8.030  -1.657  1.00  0.00    +0.000 HD
ENDBRANCH  39  40
ENDBRANCH   3  39
BRANCH   1  42
ATOM     42  O   UNL     1      -2.862   2.550   0.659  1.00  0.00    +0.000 OA
BRANCH  42  43
ATOM     43  C   UNL     1      -1.474   2.720   0.978  1.00  0.00    +0.000 C 
ATOM     44  C   UNL     1      -1.115   1.584   1.962  1.00  0.00    +0.000 C 
ATOM     45  C   UNL     1      -0.593   0.351   1.211  1.00  0.00    +0.000 C 
ATOM     46  C   UNL     1       0.751   0.630   0.457  1.00  0.00    +0.000 C 
ATOM     47  C   UNL     1       0.759  -0.226  -0.831  1.00  0.00    +0.000 C 
ATOM     48  C   UNL     1       0.777   2.111   0.051  1.00  0.00    +0.000 C 
ATOM     49  C   UNL     1       1.879   2.880   0.109  1.00  0.00    +0.000 C 
ATOM     50  C   UNL     1       3.214   2.405   0.584  1.00  0.00    +0.000 C 
ATOM     51  C   UNL     1       3.311   0.882   0.775  1.00  0.00    +0.000 C 
ATOM     52  C   UNL     1       1.991   0.306   1.376  1.00  0.00    +0.000 C 
ATOM     53  C   UNL     1       2.141  -1.195   1.739  1.00  0.00    +0.000 C 
ATOM     54  C   UNL     1       3.416  -1.531   2.534  1.00  0.00    +0.000 C 
ATOM     55  C   UNL     1       4.684  -1.004   1.843  1.00  0.00    +0.000 C 
ATOM     56  C   UNL     1       5.075  -1.734   0.519  1.00  0.00    +0.000 C 
ATOM     57  O   UNL     1       6.436  -2.176   0.658  1.00  0.00    +0.000 OA
ATOM     58  C   UNL     1       6.761  -2.282   2.060  1.00  0.00    +0.000 C 
ATOM     59  C   UNL     1       6.260  -3.646   2.572  1.00  0.00    +0.000 C 
ATOM     60  C   UNL     1       8.306  -2.221   2.302  1.00  0.00    +0.000 C 
ATOM     61  C   UNL     1       8.753  -0.790   2.682  1.00  0.00    +0.000 C 
ATOM     62  O   UNL     1       8.043   0.173   1.926  1.00  0.00    +0.000 OA
ATOM     63  C   UNL     1       6.709   0.269   2.398  1.00  0.00    +0.000 C 
ATOM     64  C   UNL     1       5.865   1.036   1.379  1.00  0.00    +0.000 C 
ATOM     65  C   UNL     1       4.479   0.521   1.702  1.00  0.00    +0.000 C 
ATOM     66  C   UNL     1       5.996  -1.097   2.655  1.00  0.00    +0.000 C 
ATOM     67  C   UNL     1      -0.571   2.707  -0.275  1.00  0.00    +0.000 C 
BRANCH  60  68
ATOM     68  C   UNL     1       9.088  -2.801   1.129  1.00  0.00    +0.000 C 
ATOM     69  C   UNL     1       9.844  -3.918   1.091  1.00  0.00    +0.000 C 
ATOM     70  C   UNL     1      10.568  -4.305  -0.170  1.00  0.00    +0.000 C 
ATOM     71  C   UNL     1      10.057  -4.872   2.228  1.00  0.00    +0.000 C 
ENDBRANCH  60  68
BRANCH  61  72
ATOM     72  O   UNL     1      10.140  -0.568   2.505  1.00  0.00    +0.000 OA
ATOM     73  H   UNL     1      10.191  -0.199   1.601  1.00  0.00    +0.000 HD
ENDBRANCH  61  72
BRANCH  56  74
ATOM     74  O   UNL     1       4.231  -2.851   0.261  1.00  0.00    +0.000 OA
ATOM     75  C   UNL     1       4.477  -3.419  -1.017  1.00  0.00    +0.000 C 
ENDBRANCH  56  74
ENDBRANCH  42  43
ENDBRANCH   1  42
TORSDOF 20
