REMARK  Name = /srv/my_project/app/compsite/backup/Dave/CORINA_stuff/newPDBs/SANC00635.pdb
AUTHORGENERATED BY OPEN BABEL 2.3.2
REMARK  2 active torsions:
REMARK  status: ('A' for Active; 'I' for Inactive)
REMARK    1  A    between atoms: C_1  and  O_2
REMARK    2  A    between atoms: O_2  and  C_3
REMARK                            x       y       z     vdW  Elec       q    Type
REMARK                         _______ _______ _______ _____ _____    ______ ____
ROOT
ATOM      1  C   UNL     1      -3.195   0.347   0.344  1.00  0.00    +0.000 C 
ATOM      2  C   UNL     1      -2.422   0.902  -0.859  1.00  0.00    +0.000 C 
ATOM      3  C   UNL     1      -0.982   0.363  -0.846  1.00  0.00    +0.000 C 
ATOM      4  C   UNL     1      -0.145   0.841   0.371  1.00  0.00    +0.000 C 
ATOM      5  C   UNL     1       0.255   2.267  -0.051  1.00  0.00    +0.000 C 
ATOM      6  C   UNL     1       0.257   2.225  -1.583  1.00  0.00    +0.000 C 
ATOM      7  N   UNL     1      -0.191   0.875  -1.996  1.00  0.00    +0.000 NA
ATOM      8  C   UNL     1       0.972  -0.028  -2.165  1.00  0.00    +0.000 C 
ATOM      9  C   UNL     1       1.699  -0.384  -0.876  1.00  0.00    +0.000 A 
ATOM     10  C   UNL     1       1.161   0.010   0.392  1.00  0.00    +0.000 A 
ATOM     11  C   UNL     1       1.888  -0.283   1.559  1.00  0.00    +0.000 A 
ATOM     12  C   UNL     1       3.064  -0.997   1.438  1.00  0.00    +0.000 A 
ATOM     13  C   UNL     1       3.551  -1.404   0.221  1.00  0.00    +0.000 A 
ATOM     14  C   UNL     1       2.897  -1.113  -0.954  1.00  0.00    +0.000 A 
ATOM     15  O   UNL     1       4.722  -2.087   0.330  1.00  0.00    +0.000 OA
ATOM     16  C   UNL     1       4.915  -2.065   1.759  1.00  0.00    +0.000 C 
ATOM     17  O   UNL     1       3.872  -1.366   2.469  1.00  0.00    +0.000 OA
ATOM     18  C   UNL     1      -0.950   0.780   1.653  1.00  0.00    +0.000 C 
ATOM     19  C   UNL     1      -2.446   0.540   1.628  1.00  0.00    +0.000 C 
ATOM     20  O   UNL     1      -1.910   1.847   1.831  1.00  0.00    +0.000 OA
ENDROOT
BRANCH   1  22
ATOM     21  C   UNL     1      -4.588  -1.372  -0.534  1.00  0.00    +0.000 C 
ATOM     22  O   UNL     1      -3.407  -1.061   0.194  1.00  0.00    +0.000 OA
ENDBRANCH   1  22
TORSDOF 1
