REMARK  Name = 
REMARK  13 active torsions:
REMARK  status: ('A' for Active; 'I' for Inactive)
REMARK    1  A    between atoms: C_1  and  C_2
REMARK    2  A    between atoms: C_2  and  C_3
REMARK    3  A    between atoms: C_3  and  C_4
REMARK    4  A    between atoms: C_7  and  C_8
REMARK    5  A    between atoms: C_8  and  C_9
REMARK    6  A    between atoms: C_9  and  C_10
REMARK    7  A    between atoms: C_10  and  C_11
REMARK    8  A    between atoms: C_11  and  O_12
REMARK    9  A    between atoms: O_12  and  C_13
REMARK   10  A    between atoms: C_19  and  C_20
REMARK   11  A    between atoms: C_20  and  C_21
REMARK   12  A    between atoms: C_21  and  O_23
REMARK   13  A    between atoms: O_23  and  C_24
REMARK                            x       y       z     vdW  Elec       q    Type
REMARK                         _______ _______ _______ _____ _____    ______ ____
ROOT
ATOM      1  C   UNL     1      -1.721   1.118  -0.170  1.00  0.00    +0.000 C 
ATOM      2  C   UNL     1      -3.103   1.755  -0.170  1.00  0.00    +0.000 C 
ATOM      3  C   UNL     1      -4.232   1.026  -0.109  1.00  0.00    +0.000 C 
ATOM      4  C   UNL     1      -4.178  -0.482  -0.123  1.00  0.00    +0.000 C 
ATOM      5  O   UNL     1      -2.905  -0.869  -0.674  1.00  0.00    +0.000 OA
ATOM      6  O   UNL     1      -1.882  -0.279   0.202  1.00  0.00    +0.000 OA
ENDROOT
BRANCH   1   7
ATOM      7  O   UNL     1      -0.928   1.706   0.868  1.00  0.00    +0.000 OA
ATOM      8  C   UNL     1      -0.587   3.077   0.757  1.00  0.00    +0.000 C 
ENDBRANCH   1   7
BRANCH   1   9
ATOM      9  C   UNL     1      -1.059   1.187  -1.568  1.00  0.00    +0.000 C 
BRANCH   9  10
ATOM     10  C   UNL     1       0.185   0.302  -1.764  1.00  0.00    +0.000 C 
BRANCH  10  11
ATOM     11  C   UNL     1       1.408   0.730  -0.951  1.00  0.00    +0.000 C 
BRANCH  11  15
ATOM     12  C   UNL     1       5.005  -1.293  -0.078  1.00  0.00    +0.000 C 
ATOM     13  C   UNL     1       3.703  -2.046  -0.210  1.00  0.00    +0.000 C 
ATOM     14  C   UNL     1       2.634  -1.493  -0.808  1.00  0.00    +0.000 C 
ATOM     15  C   UNL     1       2.675  -0.066  -1.299  1.00  0.00    +0.000 C 
ATOM     16  O   UNL     1       3.774   0.610  -0.655  1.00  0.00    +0.000 OA
ATOM     17  O   UNL     1       4.984  -0.163  -0.969  1.00  0.00    +0.000 OA
BRANCH  12  18
ATOM     18  C   UNL     1       5.293  -0.885   1.374  1.00  0.00    +0.000 C 
BRANCH  18  20
ATOM     19  C   UNL     1       7.028   0.967   0.975  1.00  0.00    +0.000 C 
ATOM     20  C   UNL     1       6.720  -0.377   1.616  1.00  0.00    +0.000 C 
ENDBRANCH  18  20
ENDBRANCH  12  18
ENDBRANCH  11  15
ENDBRANCH  10  11
ENDBRANCH   9  10
ENDBRANCH   1   9
BRANCH   4  21
ATOM     21  C   UNL     1      -5.247  -1.103  -1.008  1.00  0.00    +0.000 C 
BRANCH  21  22
ATOM     22  C   UNL     1      -6.561  -1.128  -0.285  1.00  0.00    +0.000 C 
ATOM     23  O   UNL     1      -7.389  -0.229  -0.338  1.00  0.00    +0.000 OA
BRANCH  22  24
ATOM     24  O   UNL     1      -6.681  -2.266   0.452  1.00  0.00    +0.000 OA
ATOM     25  C   UNL     1      -7.903  -2.359   1.186  1.00  0.00    +0.000 C 
ENDBRANCH  22  24
ENDBRANCH  21  22
ENDBRANCH   4  21
TORSDOF 10
