REMARK  Name = /srv/my_project/app/compsite/backup/Dave/CORINA_stuff/newPDBs/SANC00354.pdb
AUTHORGENERATED BY OPEN BABEL 2.3.2
REMARK  2 active torsions:
REMARK  status: ('A' for Active; 'I' for Inactive)
REMARK    1  A    between atoms: C_8  and  C_9
REMARK    2  A    between atoms: C_15  and  C_16
REMARK                            x       y       z     vdW  Elec       q    Type
REMARK                         _______ _______ _______ _____ _____    ______ ____
ROOT
ATOM      1  C   UNL     1       0.595   0.269   0.611  1.00  0.00    +0.000 C 
ATOM      2  C   UNL     1       1.458  -0.068   1.832  1.00  0.00    +0.000 C 
ATOM      3  C   UNL     1       2.850   0.480   1.676  1.00  0.00    +0.000 C 
ATOM      4  C   UNL     1       3.377   0.881   0.509  1.00  0.00    +0.000 C 
ATOM      5  C   UNL     1       2.621   0.728  -0.768  1.00  0.00    +0.000 C 
ATOM      6  O   UNL     1       3.108   1.191  -1.798  1.00  0.00    +0.000 OA
ATOM      7  C   UNL     1       1.315  -0.088  -0.728  1.00  0.00    +0.000 C 
ATOM      8  C   UNL     1       1.694  -1.575  -0.860  1.00  0.00    +0.000 C 
ATOM      9  C   UNL     1       0.403   0.262  -1.895  1.00  0.00    +0.000 C 
ATOM     10  C   UNL     1      -0.926   0.303  -1.748  1.00  0.00    +0.000 C 
ATOM     11  O   UNL     1      -1.821   0.621  -2.747  1.00  0.00    +0.000 OA
ATOM     12  C   UNL     1      -3.046   0.566  -2.128  1.00  0.00    +0.000 C 
ATOM     13  O   UNL     1      -4.116   0.792  -2.672  1.00  0.00    +0.000 OA
ATOM     14  C   UNL     1      -2.903   0.193  -0.709  1.00  0.00    +0.000 C 
ATOM     15  C   UNL     1      -4.059   0.058   0.199  1.00  0.00    +0.000 C 
ATOM     16  C   UNL     1      -1.598   0.025  -0.523  1.00  0.00    +0.000 C 
ATOM     17  C   UNL     1      -0.817  -0.341   0.698  1.00  0.00    +0.000 C 
ENDROOT
TORSDOF 0
