REMARK  Name = /srv/my_project/app/compsite/backup/Dave/CORINA_stuff/newPDBs/SANC00159.pdb
AUTHORGENERATED BY OPEN BABEL 2.3.2
REMARK  20 active torsions:
REMARK  status: ('A' for Active; 'I' for Inactive)
REMARK    1  A    between atoms: C_1  and  O_2
REMARK    2  A    between atoms: O_2  and  C_3
REMARK    3  A    between atoms: C_3  and  C_5
REMARK    4  A    between atoms: C_5  and  C_6
REMARK    5  A    between atoms: C_8  and  O_9
REMARK    6  A    between atoms: C_10  and  C_11
REMARK    7  A    between atoms: C_11  and  C_12
REMARK    8  A    between atoms: C_13  and  C_14
REMARK    9  A    between atoms: C_13  and  C_15
REMARK   10  A    between atoms: C_15  and  C_16
REMARK   11  A    between atoms: C_16  and  C_17
REMARK   12  A    between atoms: C_18  and  C_19
REMARK   13  A    between atoms: C_18  and  C_20
REMARK   14  A    between atoms: C_20  and  O_22
REMARK   15  A    between atoms: C_20  and  C_23
REMARK   16  A    between atoms: C_23  and  C_25
REMARK   17  A    between atoms: C_25  and  C_26
REMARK   18  A    between atoms: C_26  and  C_27
REMARK   19  A    between atoms: C_26  and  C_28
REMARK   20  A    between atoms: C_30  and  O_31
REMARK                            x       y       z     vdW  Elec       q    Type
REMARK                         _______ _______ _______ _____ _____    ______ ____
ROOT
ATOM      1  C   UNL     1       0.851  -1.827  -0.471  1.00  0.00    +0.000 C 
ATOM      2  C   UNL     1      -0.184  -1.225  -1.092  1.00  0.00    +0.000 C 
ATOM      3  C   UNL     1      -0.493  -1.364  -2.561  1.00  0.00    +0.000 C 
ENDROOT
BRANCH   1   4
ATOM      4  C   UNL     1       1.910  -2.699  -1.093  1.00  0.00    +0.000 C 
BRANCH   4   8
ATOM      5  C   UNL     1       6.019  -1.433  -0.366  1.00  0.00    +0.000 A 
ATOM      6  C   UNL     1       5.163  -0.653  -1.159  1.00  0.00    +0.000 A 
ATOM      7  C   UNL     1       3.837  -1.032  -1.379  1.00  0.00    +0.000 A 
ATOM      8  C   UNL     1       3.316  -2.211  -0.833  1.00  0.00    +0.000 A 
ATOM      9  C   UNL     1       4.173  -2.993  -0.041  1.00  0.00    +0.000 A 
ATOM     10  C   UNL     1       5.495  -2.603   0.191  1.00  0.00    +0.000 A 
BRANCH   7  11
ATOM     11  O   UNL     1       3.107  -0.189  -2.168  1.00  0.00    +0.000 OA
ATOM     12  H   UNL     1       2.166  -0.397  -2.049  1.00  0.00    +0.000 HD
ENDBRANCH   7  11
BRANCH  10  13
ATOM     13  O   UNL     1       6.237  -3.441   0.975  1.00  0.00    +0.000 OA
ATOM     14  H   UNL     1       6.777  -2.890   1.582  1.00  0.00    +0.000 HD
ENDBRANCH  10  13
BRANCH   5  15
ATOM     15  C   UNL     1       7.465  -1.019  -0.233  1.00  0.00    +0.000 C 
BRANCH  15  16
ATOM     16  C   UNL     1       7.926  -0.785   1.186  1.00  0.00    +0.000 C 
ATOM     17  O   UNL     1       7.723  -1.562   2.114  1.00  0.00    +0.000 OA
BRANCH  16  19
ATOM     18  C   UNL     1       9.202   0.603   2.575  1.00  0.00    +0.000 C 
ATOM     19  O   UNL     1       8.665   0.358   1.274  1.00  0.00    +0.000 OA
ENDBRANCH  16  19
ENDBRANCH  15  16
ENDBRANCH   5  15
ENDBRANCH   4   8
ENDBRANCH   1   4
BRANCH   2  20
ATOM     20  C   UNL     1      -1.167  -0.368  -0.306  1.00  0.00    +0.000 C 
BRANCH  20  21
ATOM     21  C   UNL     1      -1.005   1.128  -0.602  1.00  0.00    +0.000 C 
BRANCH  21  22
ATOM     22  C   UNL     1      -2.083   1.939   0.065  1.00  0.00    +0.000 C 
ATOM     23  C   UNL     1      -3.218   2.425  -0.484  1.00  0.00    +0.000 C 
ATOM     24  C   UNL     1      -3.607   2.208  -1.927  1.00  0.00    +0.000 C 
BRANCH  23  25
ATOM     25  C   UNL     1      -4.231   3.253   0.300  1.00  0.00    +0.000 C 
BRANCH  25  26
ATOM     26  O   UNL     1      -3.716   3.652   1.564  1.00  0.00    +0.000 OA
ATOM     27  H   UNL     1      -4.266   4.395   1.866  1.00  0.00    +0.000 HD
ENDBRANCH  25  26
BRANCH  25  28
ATOM     28  C   UNL     1      -5.551   2.476   0.464  1.00  0.00    +0.000 C 
ATOM     29  O   UNL     1      -6.524   2.740  -0.247  1.00  0.00    +0.000 OA
BRANCH  28  30
ATOM     30  C   UNL     1      -5.587   1.399   1.545  1.00  0.00    +0.000 C 
BRANCH  30  31
ATOM     31  C   UNL     1      -6.638   0.291   1.374  1.00  0.00    +0.000 C 
ATOM     32  C   UNL     1      -6.466  -0.482   0.068  1.00  0.00    +0.000 C 
ATOM     33  C   UNL     1      -8.074   0.792   1.536  1.00  0.00    +0.000 C 
ENDBRANCH  30  31
ENDBRANCH  28  30
ENDBRANCH  25  28
ENDBRANCH  23  25
ENDBRANCH  21  22
ENDBRANCH  20  21
ENDBRANCH   2  20
TORSDOF 15
