REMARK  Name = SANCDB_00979_minRM1.pdb
AUTHORGENERATED BY OPEN BABEL 2.3.2
REMARK  4 active torsions:
REMARK  status: ('A' for Active; 'I' for Inactive)
REMARK    1  A    between atoms: C_1  and  O_2
REMARK    2  A    between atoms: O_2  and  C_3
REMARK    3  A    between atoms: C_9  and  O_10
REMARK    4  A    between atoms: C_13  and  O_14
REMARK                            x       y       z     vdW  Elec       q    Type
REMARK                         _______ _______ _______ _____ _____    ______ ____
ROOT
ATOM      1  C   UNL     1       2.980   0.347   0.089  1.00  0.00    +0.000 A 
ATOM      2  C   UNL     1       1.858   0.947  -0.486  1.00  0.00    +0.000 A 
ATOM      3  C   UNL     1       0.587   0.410  -0.263  1.00  0.00    +0.000 A 
ATOM      4  C   UNL     1       0.422  -0.720   0.529  1.00  0.00    +0.000 A 
ATOM      5  O   UNL     1      -0.792  -1.301   0.791  1.00  0.00    +0.000 OA
ATOM      6  C   UNL     1      -1.921  -0.740   0.243  1.00  0.00    +0.000 A 
ATOM      7  C   UNL     1      -3.147  -1.352   0.526  1.00  0.00    +0.000 A 
ATOM      8  C   UNL     1      -4.339  -0.843   0.007  1.00  0.00    +0.000 A 
ATOM      9  C   UNL     1      -4.309   0.291  -0.805  1.00  0.00    +0.000 A 
ATOM     10  C   UNL     1      -3.094   0.907  -1.092  1.00  0.00    +0.000 A 
ATOM     11  C   UNL     1      -1.901   0.393  -0.570  1.00  0.00    +0.000 A 
ATOM     12  C   UNL     1      -0.606   1.024  -0.857  1.00  0.00    +0.000 A 
ATOM     13  O   UNL     1      -0.545   2.022  -1.567  1.00  0.00    +0.000 OA
ATOM     14  C   UNL     1       1.541  -1.321   1.105  1.00  0.00    +0.000 A 
ATOM     15  C   UNL     1       2.818  -0.789   0.886  1.00  0.00    +0.000 A 
ENDROOT
BRANCH   1  17
ATOM     16  C   UNL     1       5.344   0.391   0.360  1.00  0.00    +0.000 C 
ATOM     17  O   UNL     1       4.167   0.961  -0.200  1.00  0.00    +0.000 OA
ENDBRANCH   1  17
BRANCH   7  18
ATOM     18  O   UNL     1      -3.167  -2.464   1.323  1.00  0.00    +0.000 OA
ATOM     19  H   UNL     1      -4.083  -2.768   1.425  1.00  0.00    +0.000 HD
ENDBRANCH   7  18
BRANCH  10  20
ATOM     20  O   UNL     1      -3.140   2.014  -1.895  1.00  0.00    +0.000 OA
ATOM     21  H   UNL     1      -2.217   2.340  -2.011  1.00  0.00    +0.000 HD
ENDBRANCH  10  20
TORSDOF 3
