REMARK  Name = SANCDB_00963_minRM1.pdb
AUTHORGENERATED BY OPEN BABEL 2.3.2
REMARK  7 active torsions:
REMARK  status: ('A' for Active; 'I' for Inactive)
REMARK    1  A    between atoms: C_1  and  O_2
REMARK    2  A    between atoms: O_2  and  C_3
REMARK    3  A    between atoms: C_4  and  O_13
REMARK    4  A    between atoms: C_5  and  O_12
REMARK    5  A    between atoms: C_6  and  O_11
REMARK    6  A    between atoms: C_7  and  O_10
REMARK    7  A    between atoms: C_8  and  O_9
REMARK                            x       y       z     vdW  Elec       q    Type
REMARK                         _______ _______ _______ _____ _____    ______ ____
ROOT
ATOM      1  C   UNL     1      -0.982   0.318  -0.148  1.00  0.00    +0.000 C 
ATOM      2  C   UNL     1       0.090   1.372   0.154  1.00  0.00    +0.000 C 
ATOM      3  C   UNL     1       1.395   1.071  -0.603  1.00  0.00    +0.000 C 
ATOM      4  C   UNL     1       1.637  -0.434  -0.810  1.00  0.00    +0.000 C 
ATOM      5  C   UNL     1       1.006  -1.252   0.315  1.00  0.00    +0.000 C 
ATOM      6  C   UNL     1      -0.523  -1.066   0.379  1.00  0.00    +0.000 C 
ENDROOT
BRANCH   1   8
ATOM      7  C   UNL     1      -3.341  -0.015   0.039  1.00  0.00    +0.000 C 
ATOM      8  O   UNL     1      -2.225   0.791   0.399  1.00  0.00    +0.000 OA
ENDBRANCH   1   8
BRANCH   6   9
ATOM      9  O   UNL     1      -0.926  -1.270   1.742  1.00  0.00    +0.000 OA
ATOM     10  H   UNL     1      -0.611  -2.162   1.986  1.00  0.00    +0.000 HD
ENDBRANCH   6   9
BRANCH   5  11
ATOM     11  O   UNL     1       1.297  -2.646   0.134  1.00  0.00    +0.000 OA
ATOM     12  H   UNL     1       2.236  -2.674  -0.146  1.00  0.00    +0.000 HD
ENDBRANCH   5  11
BRANCH   4  13
ATOM     13  O   UNL     1       3.042  -0.720  -0.866  1.00  0.00    +0.000 OA
ATOM     14  H   UNL     1       3.471   0.039  -0.412  1.00  0.00    +0.000 HD
ENDBRANCH   4  13
BRANCH   3  15
ATOM     15  O   UNL     1       2.505   1.624   0.131  1.00  0.00    +0.000 OA
ATOM     16  H   UNL     1       2.291   2.572   0.250  1.00  0.00    +0.000 HD
ENDBRANCH   3  15
BRANCH   2  17
ATOM     17  O   UNL     1      -0.364   2.678  -0.229  1.00  0.00    +0.000 OA
ATOM     18  H   UNL     1      -1.284   2.726   0.107  1.00  0.00    +0.000 HD
ENDBRANCH   2  17
TORSDOF 6
