REMARK  Name = /srv/my_project/app/compsite/backup/Dave/CORINA_stuff/newPDBs/SANC00203.pdb
AUTHORGENERATED BY OPEN BABEL 2.3.2
REMARK  6 active torsions:
REMARK  status: ('A' for Active; 'I' for Inactive)
REMARK    1  A    between atoms: C_1  and  C_2
REMARK    2  A    between atoms: C_2  and  C_12
REMARK    3  A    between atoms: C_3  and  C_4
REMARK    4  A    between atoms: C_5  and  C_7
REMARK    5  A    between atoms: C_7  and  C_8
REMARK    6  A    between atoms: C_9  and  C_10
REMARK                            x       y       z     vdW  Elec       q    Type
REMARK                         _______ _______ _______ _____ _____    ______ ____
ROOT
ATOM      1  C   UNL     1       0.143   0.129   0.227  1.00  0.00    +0.000 C 
ATOM      2  C   UNL     1      -1.054   0.684   0.495  1.00  0.00    +0.000 C 
ATOM      3 CL   UNL     1      -1.363   1.598   1.941  1.00  0.00    +0.000 Cl
ENDROOT
BRANCH   1   6
ATOM      4  C   UNL     1       2.833  -1.314  -0.349  1.00  0.00    +0.000 C 
ATOM      5  C   UNL     1       2.526  -0.395   0.807  1.00  0.00    +0.000 C 
ATOM      6  C   UNL     1       1.339   0.202   1.046  1.00  0.00    +0.000 C 
BRANCH   5   7
ATOM      7  C   UNL     1       3.676  -0.196   1.767  1.00  0.00    +0.000 C 
ATOM      8 CL   UNL     1       4.911   0.862   1.049  1.00  0.00    +0.000 Cl
ENDBRANCH   5   7
ENDBRANCH   1   6
BRANCH   2   9
ATOM      9  C   UNL     1      -2.194   0.547  -0.411  1.00  0.00    +0.000 C 
ATOM     10  C   UNL     1      -2.665   1.839  -1.025  1.00  0.00    +0.000 C 
ATOM     11  C   UNL     1      -2.719  -0.671  -0.645  1.00  0.00    +0.000 C 
BRANCH  11  12
ATOM     12  C   UNL     1      -3.885  -0.945  -1.510  1.00  0.00    +0.000 C 
ATOM     13  O   UNL     1      -4.254  -2.094  -1.723  1.00  0.00    +0.000 OA
ENDBRANCH  11  12
ENDBRANCH   2   9
TORSDOF 4
