REMARK  Name = /srv/my_project/app/compsite/backup/Dave/CORINA_stuff/newPDBs/SANC00610.pdb
AUTHORGENERATED BY OPEN BABEL 2.3.2
REMARK  7 active torsions:
REMARK  status: ('A' for Active; 'I' for Inactive)
REMARK    1  A    between atoms: C_1  and  O_2
REMARK    2  A    between atoms: O_2  and  C_3
REMARK    3  A    between atoms: C_6  and  C_7
REMARK    4  A    between atoms: C_8  and  C_9
REMARK    5  A    between atoms: C_11  and  O_12
REMARK    6  A    between atoms: C_14  and  O_15
REMARK    7  A    between atoms: C_18  and  O_19
REMARK                            x       y       z     vdW  Elec       q    Type
REMARK                         _______ _______ _______ _____ _____    ______ ____
ROOT
ATOM      1  C   UNL     1      -0.296   0.279  -0.392  1.00  0.00    +0.000 C 
ATOM      2  C   UNL     1      -1.270  -0.330   0.304  1.00  0.00    +0.000 C 
ENDROOT
BRANCH   1   6
ATOM      3  C   UNL     1       3.919  -0.237   0.243  1.00  0.00    +0.000 A 
ATOM      4  C   UNL     1       3.399   1.001  -0.127  1.00  0.00    +0.000 A 
ATOM      5  C   UNL     1       2.018   1.151  -0.324  1.00  0.00    +0.000 A 
ATOM      6  C   UNL     1       1.139   0.073  -0.145  1.00  0.00    +0.000 A 
ATOM      7  C   UNL     1       1.667  -1.173   0.210  1.00  0.00    +0.000 A 
ATOM      8  C   UNL     1       3.038  -1.312   0.404  1.00  0.00    +0.000 A 
BRANCH   3  10
ATOM      9  C   UNL     1       6.162   0.544   0.319  1.00  0.00    +0.000 C 
ATOM     10  O   UNL     1       5.239  -0.529   0.468  1.00  0.00    +0.000 OA
ENDBRANCH   3  10
BRANCH   8  11
ATOM     11  O   UNL     1       3.518  -2.545   0.756  1.00  0.00    +0.000 OA
ATOM     12  H   UNL     1       4.484  -2.425   0.837  1.00  0.00    +0.000 HD
ENDBRANCH   8  11
ENDBRANCH   1   6
BRANCH   2  13
ATOM     13  C   UNL     1      -2.701  -0.119   0.044  1.00  0.00    +0.000 A 
ATOM     14  C   UNL     1      -3.237   1.162  -0.152  1.00  0.00    +0.000 A 
ATOM     15  C   UNL     1      -4.606   1.316  -0.367  1.00  0.00    +0.000 A 
ATOM     16  C   UNL     1      -5.454   0.217  -0.383  1.00  0.00    +0.000 A 
ATOM     17  C   UNL     1      -4.924  -1.050  -0.175  1.00  0.00    +0.000 A 
ATOM     18  C   UNL     1      -3.559  -1.228   0.044  1.00  0.00    +0.000 A 
BRANCH  15  19
ATOM     19  O   UNL     1      -5.158   2.549  -0.563  1.00  0.00    +0.000 OA
ATOM     20  H   UNL     1      -4.457   3.218  -0.508  1.00  0.00    +0.000 HD
ENDBRANCH  15  19
BRANCH  17  21
ATOM     21  O   UNL     1      -5.784  -2.110  -0.192  1.00  0.00    +0.000 OA
ATOM     22  H   UNL     1      -5.277  -2.926  -0.047  1.00  0.00    +0.000 HD
ENDBRANCH  17  21
ENDBRANCH   2  13
TORSDOF 6
