REMARK  Name = SANCDB_00865_minRM1.pdb
AUTHORGENERATED BY OPEN BABEL 2.3.2
REMARK  4 active torsions:
REMARK  status: ('A' for Active; 'I' for Inactive)
REMARK    1  A    between atoms: C_1  and  O_2
REMARK    2  A    between atoms: O_2  and  C_3
REMARK    3  A    between atoms: C_5  and  C_12
REMARK    4  A    between atoms: C_12  and  C_13
REMARK                            x       y       z     vdW  Elec       q    Type
REMARK                         _______ _______ _______ _____ _____    ______ ____
ROOT
ATOM      1  C   UNL     1      -1.298  -0.672  -0.023  1.00  0.00    +0.000 A 
ATOM      2  C   UNL     1       0.056  -0.632  -0.378  1.00  0.00    +0.000 A 
ATOM      3  C   UNL     1       0.761   0.597  -0.454  1.00  0.00    +0.000 A 
ATOM      4  C   UNL     1       0.098   1.797  -0.160  1.00  0.00    +0.000 A 
ATOM      5  C   UNL     1      -1.234   1.732   0.185  1.00  0.00    +0.000 A 
ATOM      6  C   UNL     1      -1.915   0.537   0.251  1.00  0.00    +0.000 A 
ATOM      7  O   UNL     1      -3.218   0.714   0.613  1.00  0.00    +0.000 OA
ATOM      8  C   UNL     1      -3.274   2.144   0.764  1.00  0.00    +0.000 C 
ATOM      9  O   UNL     1      -2.018   2.800   0.495  1.00  0.00    +0.000 OA
ENDROOT
BRANCH   1  11
ATOM     10  C   UNL     1      -1.436  -3.039  -0.167  1.00  0.00    +0.000 C 
ATOM     11  O   UNL     1      -2.071  -1.792   0.079  1.00  0.00    +0.000 OA
ENDBRANCH   1  11
BRANCH   3  12
ATOM     12  C   UNL     1       2.226   0.606  -0.827  1.00  0.00    +0.000 C 
BRANCH  12  13
ATOM     13  C   UNL     1       3.107   0.213   0.325  1.00  0.00    +0.000 C 
ATOM     14  C   UNL     1       3.946  -0.831   0.315  1.00  0.00    +0.000 C 
ENDBRANCH  12  13
ENDBRANCH   3  12
TORSDOF 3
