REMARK  Name = /srv/my_project/app/compsite/backup/Dave/CORINA_stuff/newPDBs/SANC00660.pdb
AUTHORGENERATED BY OPEN BABEL 2.3.2
REMARK  6 active torsions:
REMARK  status: ('A' for Active; 'I' for Inactive)
REMARK    1  A    between atoms: C_4  and  C_5
REMARK    2  A    between atoms: C_5  and  O_6
REMARK    3  A    between atoms: C_10  and  C_11
REMARK    4  A    between atoms: C_11  and  O_12
REMARK    5  A    between atoms: O_12  and  C_13
REMARK    6  A    between atoms: C_13  and  C_14
REMARK                            x       y       z     vdW  Elec       q    Type
REMARK                         _______ _______ _______ _____ _____    ______ ____
ROOT
ATOM      1  C   UNL     1      -2.516  -0.808   0.647  1.00  0.00    +0.000 C 
ATOM      2  C   UNL     1      -2.619   0.548   1.294  1.00  0.00    +0.000 C 
ATOM      3  C   UNL     1      -2.039   1.751   1.097  1.00  0.00    +0.000 C 
ATOM      4  C   UNL     1      -1.051   2.113   0.009  1.00  0.00    +0.000 C 
ATOM      5  C   UNL     1       0.384   2.238   0.537  1.00  0.00    +0.000 C 
ATOM      6  C   UNL     1       1.347   1.294  -0.126  1.00  0.00    +0.000 C 
ATOM      7  C   UNL     1       1.556  -0.005   0.178  1.00  0.00    +0.000 C 
ATOM      8  C   UNL     1       0.779  -0.739   1.259  1.00  0.00    +0.000 C 
ATOM      9  C   UNL     1      -0.157  -1.826   0.714  1.00  0.00    +0.000 C 
ATOM     10  C   UNL     1      -1.310  -1.298  -0.160  1.00  0.00    +0.000 C 
ATOM     11  C   UNL     1      -2.004  -2.331  -0.997  1.00  0.00    +0.000 C 
ATOM     12  C   UNL     1      -1.534  -3.435  -1.592  1.00  0.00    +0.000 C 
ATOM     13  C   UNL     1      -3.434  -1.950  -1.099  1.00  0.00    +0.000 C 
ATOM     14  O   UNL     1      -4.263  -2.444  -1.840  1.00  0.00    +0.000 OA
ATOM     15  O   UNL     1      -3.654  -0.940  -0.219  1.00  0.00    +0.000 OA
ENDROOT
BRANCH   3  16
ATOM     16  C   UNL     1      -2.411   2.908   2.002  1.00  0.00    +0.000 C 
BRANCH  16  17
ATOM     17  O   UNL     1      -3.047   3.912   1.229  1.00  0.00    +0.000 OA
ATOM     18  H   UNL     1      -3.375   4.583   1.851  1.00  0.00    +0.000 HD
ENDBRANCH  16  17
ENDBRANCH   3  16
BRANCH   7  19
ATOM     19  C   UNL     1       2.604  -0.857  -0.527  1.00  0.00    +0.000 C 
BRANCH  19  20
ATOM     20  O   UNL     1       3.407  -0.070  -1.414  1.00  0.00    +0.000 OA
BRANCH  20  21
ATOM     21  C   UNL     1       4.349  -0.790  -2.080  1.00  0.00    +0.000 C 
ATOM     22  C   UNL     1       5.139   0.109  -2.981  1.00  0.00    +0.000 C 
ATOM     23  O   UNL     1       4.534  -1.994  -1.967  1.00  0.00    +0.000 OA
ENDBRANCH  20  21
ENDBRANCH  19  20
ENDBRANCH   7  19
TORSDOF 5
