REMARK  Name = /srv/my_project/app/compsite/backup/Dave/CORINA_stuff/newPDBs/SANC00358.pdb
AUTHORGENERATED BY OPEN BABEL 2.3.2
REMARK  6 active torsions:
REMARK  status: ('A' for Active; 'I' for Inactive)
REMARK    1  A    between atoms: C_1  and  O_2
REMARK    2  A    between atoms: O_2  and  C_3
REMARK    3  A    between atoms: C_6  and  C_7
REMARK    4  A    between atoms: C_7  and  C_8
REMARK    5  A    between atoms: C_14  and  O_15
REMARK    6  A    between atoms: C_17  and  O_18
REMARK                            x       y       z     vdW  Elec       q    Type
REMARK                         _______ _______ _______ _____ _____    ______ ____
ROOT
ATOM      1  C   UNL     1      -0.779  -0.287   2.005  1.00  0.00    +0.000 C 
ATOM      2  C   UNL     1      -1.035  -1.545   1.183  1.00  0.00    +0.000 C 
ATOM      3  O   UNL     1      -2.429  -1.687   0.883  1.00  0.00    +0.000 OA
ATOM      4  C   UNL     1      -2.919  -0.616   0.183  1.00  0.00    +0.000 A 
ATOM      5  C   UNL     1      -4.030  -0.853  -0.626  1.00  0.00    +0.000 A 
ATOM      6  C   UNL     1      -4.578   0.192  -1.365  1.00  0.00    +0.000 A 
ATOM      7  C   UNL     1      -4.043   1.476  -1.300  1.00  0.00    +0.000 A 
ATOM      8  C   UNL     1      -2.949   1.714  -0.471  1.00  0.00    +0.000 A 
ATOM      9  C   UNL     1      -2.385   0.671   0.275  1.00  0.00    +0.000 A 
ATOM     10  C   UNL     1      -1.259   0.904   1.202  1.00  0.00    +0.000 C 
ATOM     11  O   UNL     1      -0.822   2.046   1.338  1.00  0.00    +0.000 OA
ENDROOT
BRANCH   6  12
ATOM     12  O   UNL     1      -5.655  -0.086  -2.153  1.00  0.00    +0.000 OA
ATOM     13  H   UNL     1      -5.933   0.729  -2.605  1.00  0.00    +0.000 HD
ENDBRANCH   6  12
BRANCH   8  14
ATOM     14  O   UNL     1      -2.481   3.000  -0.428  1.00  0.00    +0.000 OA
ATOM     15  H   UNL     1      -1.747   3.034   0.227  1.00  0.00    +0.000 HD
ENDBRANCH   8  14
BRANCH   1  16
ATOM     16  C   UNL     1       0.675  -0.148   2.481  1.00  0.00    +0.000 C 
BRANCH  16  20
ATOM     17  C   UNL     1       3.678  -0.657  -0.598  1.00  0.00    +0.000 A 
ATOM     18  C   UNL     1       3.317  -1.724   0.228  1.00  0.00    +0.000 A 
ATOM     19  C   UNL     1       2.356  -1.561   1.228  1.00  0.00    +0.000 A 
ATOM     20  C   UNL     1       1.732  -0.321   1.415  1.00  0.00    +0.000 A 
ATOM     21  C   UNL     1       2.103   0.748   0.591  1.00  0.00    +0.000 A 
ATOM     22  C   UNL     1       3.067   0.582  -0.410  1.00  0.00    +0.000 A 
BRANCH  17  24
ATOM     23  C   UNL     1       5.033   0.103  -2.395  1.00  0.00    +0.000 C 
ATOM     24  O   UNL     1       4.628  -0.955  -1.535  1.00  0.00    +0.000 OA
ENDBRANCH  17  24
ENDBRANCH  16  20
ENDBRANCH   1  16
TORSDOF 5
