REMARK  Name = /srv/my_project/app/compsite/backup/Dave/CORINA_stuff/newPDBs/SANC00368.pdb
AUTHORGENERATED BY OPEN BABEL 2.3.2
REMARK  9 active torsions:
REMARK  status: ('A' for Active; 'I' for Inactive)
REMARK    1  A    between atoms: C_1  and  O_2
REMARK    2  A    between atoms: O_2  and  C_3
REMARK    3  A    between atoms: C_5  and  C_6
REMARK    4  A    between atoms: C_6  and  O_8
REMARK    5  A    between atoms: O_8  and  C_9
REMARK    6  A    between atoms: C_9  and  C_10
REMARK    7  A    between atoms: C_10  and  C_11
REMARK    8  A    between atoms: C_14  and  O_15
REMARK    9  A    between atoms: C_20  and  O_21
REMARK                            x       y       z     vdW  Elec       q    Type
REMARK                         _______ _______ _______ _____ _____    ______ ____
ROOT
ATOM      1  C   UNL     1      -0.612   1.059   0.698  1.00  0.00    +0.000 C 
ATOM      2  O   UNL     1       0.083   2.053   0.556  1.00  0.00    +0.000 OA
ENDROOT
BRANCH   1   5
ATOM      3  C   UNL     1      -4.209   0.051   1.435  1.00  0.00    +0.000 A 
ATOM      4  C   UNL     1      -2.843  -0.052   1.164  1.00  0.00    +0.000 A 
ATOM      5  C   UNL     1      -2.071   1.111   0.989  1.00  0.00    +0.000 A 
ATOM      6  C   UNL     1      -2.676   2.373   1.087  1.00  0.00    +0.000 A 
ATOM      7  C   UNL     1      -4.039   2.479   1.357  1.00  0.00    +0.000 A 
ATOM      8  C   UNL     1      -4.788   1.322   1.527  1.00  0.00    +0.000 A 
BRANCH   3  10
ATOM      9  C   UNL     1      -4.531  -2.305   1.546  1.00  0.00    +0.000 C 
ATOM     10  O   UNL     1      -5.077  -0.993   1.627  1.00  0.00    +0.000 OA
ENDBRANCH   3  10
BRANCH   8  11
ATOM     11  O   UNL     1      -6.124   1.453   1.790  1.00  0.00    +0.000 OA
ATOM     12  H   UNL     1      -6.458   0.539   1.874  1.00  0.00    +0.000 HD
ENDBRANCH   8  11
ENDBRANCH   1   5
BRANCH   1  13
ATOM     13  O   UNL     1      -0.186  -0.226   0.608  1.00  0.00    +0.000 OA
BRANCH  13  14
ATOM     14  C   UNL     1       1.218  -0.393   0.344  1.00  0.00    +0.000 C 
BRANCH  14  15
ATOM     15  C   UNL     1       1.498  -0.283  -1.154  1.00  0.00    +0.000 C 
BRANCH  15  16
ATOM     16  C   UNL     1       2.955  -0.495  -1.472  1.00  0.00    +0.000 A 
ATOM     17  C   UNL     1       3.433  -1.766  -1.818  1.00  0.00    +0.000 A 
ATOM     18  C   UNL     1       4.788  -1.959  -2.090  1.00  0.00    +0.000 A 
ATOM     19  C   UNL     1       5.666  -0.885  -2.014  1.00  0.00    +0.000 A 
ATOM     20  C   UNL     1       5.213   0.383  -1.667  1.00  0.00    +0.000 A 
ATOM     21  C   UNL     1       3.857   0.576  -1.395  1.00  0.00    +0.000 A 
BRANCH  19  22
ATOM     22  O   UNL     1       6.981  -1.120  -2.288  1.00  0.00    +0.000 OA
ATOM     23  H   UNL     1       7.466  -0.282  -2.205  1.00  0.00    +0.000 HD
ENDBRANCH  19  22
ENDBRANCH  15  16
ENDBRANCH  14  15
ENDBRANCH  13  14
ENDBRANCH   1  13
TORSDOF 8
