REMARK  Name = /srv/my_project/app/compsite/backup/Dave/CORINA_stuff/newPDBs/SANC00250.pdb
AUTHORGENERATED BY OPEN BABEL 2.3.2
REMARK  20 active torsions:
REMARK  status: ('A' for Active; 'I' for Inactive)
REMARK    1  A    between atoms: C_1  and  C_2
REMARK    2  A    between atoms: C_2  and  C_3
REMARK    3  A    between atoms: C_4  and  C_5
REMARK    4  A    between atoms: C_5  and  C_6
REMARK    5  A    between atoms: C_6  and  C_7
REMARK    6  A    between atoms: C_7  and  C_29
REMARK    7  A    between atoms: C_8  and  C_9
REMARK    8  A    between atoms: C_9  and  C_10
REMARK    9  A    between atoms: C_10  and  C_11
REMARK   10  A    between atoms: C_11  and  C_12
REMARK   11  A    between atoms: C_13  and  C_14
REMARK   12  A    between atoms: C_14  and  C_15
REMARK   13  A    between atoms: C_15  and  C_16
REMARK   14  A    between atoms: C_16  and  C_17
REMARK   15  A    between atoms: C_18  and  C_19
REMARK   16  A    between atoms: C_19  and  C_20
REMARK   17  A    between atoms: C_22  and  O_23
REMARK   18  A    between atoms: C_25  and  C_26
REMARK   19  A    between atoms: C_27  and  O_28
REMARK   20  A    between atoms: C_29  and  O_31
REMARK                            x       y       z     vdW  Elec       q    Type
REMARK                         _______ _______ _______ _____ _____    ______ ____
ROOT
ATOM      1  C   UNL     1       0.427   0.252   0.974  1.00  0.00    +0.000 C 
ATOM      2  C   UNL     1      -0.282  -1.076   0.984  1.00  0.00    +0.000 C 
ATOM      3  C   UNL     1      -0.153   1.423   0.642  1.00  0.00    +0.000 C 
ENDROOT
BRANCH   1   4
ATOM      4  C   UNL     1       1.879   0.212   1.416  1.00  0.00    +0.000 C 
BRANCH   4   5
ATOM      5  C   UNL     1       2.792  -0.452   0.379  1.00  0.00    +0.000 C 
BRANCH   5   7
ATOM      6  C   UNL     1       4.984  -1.454   1.280  1.00  0.00    +0.000 C 
ATOM      7  C   UNL     1       4.233  -0.434   0.816  1.00  0.00    +0.000 C 
BRANCH   6   8
ATOM      8  C   UNL     1       4.471  -2.818   1.548  1.00  0.00    +0.000 C 
ATOM      9  O   UNL     1       5.117  -3.847   1.457  1.00  0.00    +0.000 OA
BRANCH   8  10
ATOM     10  O   UNL     1       3.213  -2.833   2.015  1.00  0.00    +0.000 OA
ATOM     11  H   UNL     1       3.041  -3.782   2.182  1.00  0.00    +0.000 HD
ENDBRANCH   8  10
ENDBRANCH   6   8
BRANCH   6  12
ATOM     12  C   UNL     1       6.453  -1.267   1.598  1.00  0.00    +0.000 C 
BRANCH  12  13
ATOM     13  C   UNL     1       7.408  -1.762   0.502  1.00  0.00    +0.000 C 
BRANCH  13  17
ATOM     14  C   UNL     1       7.869   0.720  -2.502  1.00  0.00    +0.000 C 
ATOM     15  C   UNL     1       8.089   0.056  -1.168  1.00  0.00    +0.000 C 
ATOM     16  C   UNL     1       9.214   0.642  -0.361  1.00  0.00    +0.000 C 
ATOM     17  C   UNL     1       7.308  -0.969  -0.774  1.00  0.00    +0.000 C 
ENDBRANCH  13  17
ENDBRANCH  12  13
ENDBRANCH   6  12
ENDBRANCH   5   7
ENDBRANCH   4   5
ENDBRANCH   1   4
BRANCH   3  18
ATOM     18  C   UNL     1      -1.563   1.642   0.161  1.00  0.00    +0.000 C 
BRANCH  18  19
ATOM     19  C   UNL     1      -2.446   2.234   1.265  1.00  0.00    +0.000 C 
BRANCH  19  20
ATOM     20  C   UNL     1      -3.887   2.419   0.823  1.00  0.00    +0.000 C 
ATOM     21  C   UNL     1      -4.122   3.565  -0.124  1.00  0.00    +0.000 C 
ATOM     22  C   UNL     1      -4.847   1.591   1.285  1.00  0.00    +0.000 C 
BRANCH  22  23
ATOM     23  C   UNL     1      -6.321   1.599   0.975  1.00  0.00    +0.000 C 
BRANCH  23  24
ATOM     24  C   UNL     1      -6.753   0.362   0.217  1.00  0.00    +0.000 A 
ATOM     25  C   UNL     1      -7.095  -0.799   0.930  1.00  0.00    +0.000 A 
ATOM     26  C   UNL     1      -7.468  -1.949   0.244  1.00  0.00    +0.000 A 
ATOM     27  C   UNL     1      -7.508  -1.972  -1.145  1.00  0.00    +0.000 A 
ATOM     28  C   UNL     1      -7.170  -0.829  -1.884  1.00  0.00    +0.000 A 
ATOM     29  C   UNL     1      -7.226  -0.888  -3.383  1.00  0.00    +0.000 C 
ATOM     30  C   UNL     1      -6.787   0.330  -1.188  1.00  0.00    +0.000 A 
BRANCH  26  31
ATOM     31  O   UNL     1      -7.806  -3.093   0.906  1.00  0.00    +0.000 OA
ATOM     32  H   UNL     1      -7.736  -2.929   1.861  1.00  0.00    +0.000 HD
ENDBRANCH  26  31
BRANCH  30  33
ATOM     33  O   UNL     1      -6.438   1.476  -1.851  1.00  0.00    +0.000 OA
ATOM     34  H   UNL     1      -6.365   1.290  -2.799  1.00  0.00    +0.000 HD
ENDBRANCH  30  33
ENDBRANCH  23  24
ENDBRANCH  22  23
ENDBRANCH  19  20
ENDBRANCH  18  19
ENDBRANCH   3  18
TORSDOF 15
