REMARK  Name = SANCDB_01116_minRM1.pdb
AUTHORGENERATED BY OPEN BABEL 2.3.2
REMARK  13 active torsions:
REMARK  status: ('A' for Active; 'I' for Inactive)
REMARK    1  A    between atoms: C_1  and  C_2
REMARK    2  A    between atoms: C_2  and  C_3
REMARK    3  A    between atoms: C_2  and  C_10
REMARK    4  A    between atoms: C_3  and  C_4
REMARK    5  A    between atoms: C_5  and  C_6
REMARK    6  A    between atoms: C_6  and  C_7
REMARK    7  A    between atoms: C_6  and  C_8
REMARK    8  A    between atoms: C_6  and  O_9
REMARK    9  A    between atoms: C_13  and  C_32
REMARK   10  A    between atoms: C_14  and  C_31
REMARK   11  A    between atoms: C_26  and  O_30
REMARK   12  A    between atoms: C_27  and  C_28
REMARK   13  A    between atoms: C_27  and  C_29
REMARK                            x       y       z     vdW  Elec       q    Type
REMARK                         _______ _______ _______ _____ _____    ______ ____
ROOT
ATOM      1  C   UNL     1       2.039  -0.238  -1.439  1.00  0.00    +0.000 C 
ATOM      2  C   UNL     1       1.617  -0.737  -2.849  1.00  0.00    +0.000 C 
ATOM      3  C   UNL     1       0.082  -0.836  -2.853  1.00  0.00    +0.000 C 
ATOM      4  C   UNL     1      -0.372  -0.004  -1.639  1.00  0.00    +0.000 C 
ATOM      5  C   UNL     1       0.736  -0.379  -0.586  1.00  0.00    +0.000 C 
ATOM      6  C   UNL     1       0.605   0.581   0.604  1.00  0.00    +0.000 C 
ATOM      7  C   UNL     1      -0.843   0.910   1.011  1.00  0.00    +0.000 C 
ATOM      8  C   UNL     1      -1.971   0.084   0.381  1.00  0.00    +0.000 C 
ATOM      9  C   UNL     1      -1.768  -0.390  -1.082  1.00  0.00    +0.000 C 
ATOM     10  C   UNL     1      -2.941   0.025  -1.982  1.00  0.00    +0.000 C 
ATOM     11  C   UNL     1      -4.258  -0.472  -1.390  1.00  0.00    +0.000 C 
ATOM     12  C   UNL     1      -4.582   0.294  -0.099  1.00  0.00    +0.000 C 
ATOM     13  C   UNL     1      -3.416   0.347   0.892  1.00  0.00    +0.000 C 
ATOM     14  C   UNL     1      -2.680  -0.911   1.282  1.00  0.00    +0.000 C 
ATOM     15  C   UNL     1      -3.638   1.386   1.992  1.00  0.00    +0.000 C 
ATOM     16  C   UNL     1      -5.120   1.664   2.259  1.00  0.00    +0.000 C 
ATOM     17  C   UNL     1      -5.990   0.422   2.069  1.00  0.00    +0.000 C 
ATOM     18  C   UNL     1      -5.928  -0.129   0.603  1.00  0.00    +0.000 C 
ATOM     19  C   UNL     1      -6.167  -1.652   0.587  1.00  0.00    +0.000 C 
ATOM     20  C   UNL     1      -7.095   0.519  -0.189  1.00  0.00    +0.000 C 
ATOM     21  C   UNL     1       0.621  -1.825  -0.035  1.00  0.00    +0.000 C 
ATOM     22  C   UNL     1      -0.366   1.490  -2.094  1.00  0.00    +0.000 C 
ENDROOT
BRANCH   1  24
ATOM     23  C   UNL     1       3.606  -2.296  -0.917  1.00  0.00    +0.000 C 
ATOM     24  C   UNL     1       3.428  -0.771  -0.973  1.00  0.00    +0.000 C 
BRANCH  24  25
ATOM     25  C   UNL     1       3.869  -0.110   0.354  1.00  0.00    +0.000 C 
BRANCH  25  26
ATOM     26  C   UNL     1       5.330  -0.305   0.662  1.00  0.00    +0.000 C 
ATOM     27  C   UNL     1       6.235   0.690   0.663  1.00  0.00    +0.000 C 
BRANCH  27  28
ATOM     28  C   UNL     1       7.710   0.572   0.980  1.00  0.00    +0.000 C 
ATOM     29  C   UNL     1       8.017   1.244   2.318  1.00  0.00    +0.000 C 
ATOM     30  C   UNL     1       8.546   1.199  -0.138  1.00  0.00    +0.000 C 
BRANCH  28  31
ATOM     31  O   UNL     1       8.087  -0.799   1.091  1.00  0.00    +0.000 OA
ATOM     32  H   UNL     1       7.877  -1.218   0.239  1.00  0.00    +0.000 HD
ENDBRANCH  28  31
ENDBRANCH  27  28
ENDBRANCH  25  26
ENDBRANCH  24  25
ENDBRANCH   1  24
BRANCH  17  33
ATOM     33  O   UNL     1      -5.613  -0.556   3.041  1.00  0.00    +0.000 OA
ATOM     34  H   UNL     1      -4.721  -0.871   2.820  1.00  0.00    +0.000 HD
ENDBRANCH  17  33
TORSDOF 6
