REMARK  Name = SANCDB_00985_minRM1.pdb
AUTHORGENERATED BY OPEN BABEL 2.3.2
REMARK  9 active torsions:
REMARK  status: ('A' for Active; 'I' for Inactive)
REMARK    1  A    between atoms: C_1  and  C_2
REMARK    2  A    between atoms: C_2  and  C_3
REMARK    3  A    between atoms: C_2  and  C_4
REMARK    4  A    between atoms: C_5  and  O_26
REMARK    5  A    between atoms: C_6  and  O_25
REMARK    6  A    between atoms: C_10  and  O_23
REMARK    7  A    between atoms: C_17  and  C_18
REMARK    8  A    between atoms: C_17  and  C_19
REMARK    9  A    between atoms: O_23  and  C_24
REMARK                            x       y       z     vdW  Elec       q    Type
REMARK                         _______ _______ _______ _____ _____    ______ ____
ROOT
ATOM      1  C   UNL     1       3.177  -0.214   0.033  1.00  0.00    +0.000 A 
ATOM      2  C   UNL     1       2.663  -1.090  -0.926  1.00  0.00    +0.000 A 
ATOM      3  C   UNL     1       1.287  -1.132  -1.226  1.00  0.00    +0.000 A 
ATOM      4  C   UNL     1       0.365  -0.293  -0.599  1.00  0.00    +0.000 A 
ATOM      5  C   UNL     1       0.874   0.607   0.372  1.00  0.00    +0.000 A 
ATOM      6  C   UNL     1       2.252   0.630   0.672  1.00  0.00    +0.000 A 
ATOM      7  C   UNL     1      -0.064   1.529   1.149  1.00  0.00    +0.000 C 
ATOM      8  C   UNL     1      -1.546   1.398   0.691  1.00  0.00    +0.000 C 
ATOM      9  C   UNL     1      -1.893  -0.072   0.445  1.00  0.00    +0.000 C 
ATOM     10  C   UNL     1      -1.142  -0.225  -0.909  1.00  0.00    +0.000 C 
ATOM     11  C   UNL     1      -1.752  -1.326  -1.787  1.00  0.00    +0.000 C 
ATOM     12  C   UNL     1      -3.263  -1.218  -2.017  1.00  0.00    +0.000 C 
ATOM     13  C   UNL     1      -4.012  -0.380  -0.988  1.00  0.00    +0.000 C 
ATOM     14  C   UNL     1      -3.414  -0.461   0.427  1.00  0.00    +0.000 C 
ATOM     15  C   UNL     1      -3.560  -1.911   0.956  1.00  0.00    +0.000 C 
ATOM     16  C   UNL     1      -4.263   0.424   1.362  1.00  0.00    +0.000 C 
ATOM     17  C   UNL     1      -1.404   1.142  -1.556  1.00  0.00    +0.000 C 
ATOM     18  O   UNL     1      -1.346   1.426  -2.741  1.00  0.00    +0.000 OA
ATOM     19  O   UNL     1      -1.744   2.037  -0.576  1.00  0.00    +0.000 OA
ENDROOT
BRANCH   1  21
ATOM     20  C   UNL     1       5.221  -1.412   0.972  1.00  0.00    +0.000 C 
ATOM     21  C   UNL     1       4.635  -0.099   0.447  1.00  0.00    +0.000 C 
ATOM     22  C   UNL     1       5.504   0.520  -0.650  1.00  0.00    +0.000 C 
ENDBRANCH   1  21
BRANCH   7  23
ATOM     23  O   UNL     1       0.435   2.865   1.042  1.00  0.00    +0.000 OA
ATOM     24  C   UNL     1      -0.166   3.779   1.945  1.00  0.00    +0.000 C 
ENDBRANCH   7  23
BRANCH   3  25
ATOM     25  O   UNL     1       0.895  -2.041  -2.170  1.00  0.00    +0.000 OA
ATOM     26  H   UNL     1       1.726  -2.468  -2.462  1.00  0.00    +0.000 HD
ENDBRANCH   3  25
BRANCH   2  27
ATOM     27  O   UNL     1       3.430  -1.967  -1.653  1.00  0.00    +0.000 OA
ATOM     28  H   UNL     1       4.362  -1.725  -1.550  1.00  0.00    +0.000 HD
ENDBRANCH   2  27
TORSDOF 4
