REMARK  Name = /srv/my_project/app/compsite/backup/Dave/CORINA_stuff/newPDBs/SANC00418.pdb
AUTHORGENERATED BY OPEN BABEL 2.3.2
REMARK  18 active torsions:
REMARK  status: ('A' for Active; 'I' for Inactive)
REMARK    1  A    between atoms: C_1  and  C_2
REMARK    2  A    between atoms: C_2  and  C_3
REMARK    3  A    between atoms: C_2  and  O_4
REMARK    4  A    between atoms: C_2  and  C_5
REMARK    5  A    between atoms: C_5  and  O_6
REMARK    6  A    between atoms: C_5  and  C_7
REMARK    7  A    between atoms: C_7  and  C_8
REMARK    8  A    between atoms: C_8  and  C_9
REMARK    9  A    between atoms: C_9  and  C_10
REMARK   10  A    between atoms: C_15  and  C_17
REMARK   11  A    between atoms: C_18  and  C_20
REMARK   12  A    between atoms: C_20  and  C_21
REMARK   13  A    between atoms: C_21  and  C_22
REMARK   14  A    between atoms: C_22  and  C_23
REMARK   15  A    between atoms: C_24  and  C_26
REMARK   16  A    between atoms: C_32  and  O_33
REMARK   17  A    between atoms: C_38  and  C_39
REMARK   18  A    between atoms: C_38  and  C_40
REMARK                            x       y       z     vdW  Elec       q    Type
REMARK                         _______ _______ _______ _____ _____    ______ ____
ROOT
ATOM      1  C   UNL     1       0.059   0.947  -0.339  1.00  0.00    +0.000 C 
ENDROOT
BRANCH   1  10
ATOM      2  C   UNL     1       2.549   1.798  -0.708  1.00  0.00    +0.000 C 
ATOM      3  C   UNL     1       3.425   2.522  -1.776  1.00  0.00    +0.000 C 
ATOM      4  C   UNL     1       2.758   2.584   0.603  1.00  0.00    +0.000 C 
ATOM      5  O   UNL     1       3.539   2.199   1.479  1.00  0.00    +0.000 OA
ATOM      6  C   UNL     1       2.095   3.942   0.734  1.00  0.00    +0.000 C 
ATOM      7  C   UNL     1       0.657   3.954   0.239  1.00  0.00    +0.000 C 
ATOM      8  C   UNL     1       0.535   3.342  -1.160  1.00  0.00    +0.000 C 
ATOM      9  C   UNL     1      -0.877   3.525  -1.725  1.00  0.00    +0.000 C 
ATOM     10  C   UNL     1       1.032   1.858  -1.153  1.00  0.00    +0.000 C 
BRANCH   2  11
ATOM     11  C   UNL     1       3.144   0.353  -0.630  1.00  0.00    +0.000 C 
BRANCH  11  12
ATOM     12  C   UNL     1       2.851  -0.504   0.614  1.00  0.00    +0.000 C 
BRANCH  12  13
ATOM     13  C   UNL     1       4.091  -1.052   1.357  1.00  0.00    +0.000 C 
BRANCH  13  15
ATOM     14  C   UNL     1       5.849  -2.861   1.653  1.00  0.00    +0.000 C 
ATOM     15  C   UNL     1       4.697  -2.361   0.767  1.00  0.00    +0.000 C 
ATOM     16  C   UNL     1       5.212  -2.205  -0.665  1.00  0.00    +0.000 C 
BRANCH  15  17
ATOM     17  O   UNL     1       3.691  -3.386   0.741  1.00  0.00    +0.000 OA
ATOM     18  H   UNL     1       3.469  -3.603   1.663  1.00  0.00    +0.000 HD
ENDBRANCH  15  17
ENDBRANCH  13  15
BRANCH  13  19
ATOM     19  O   UNL     1       5.089  -0.043   1.501  1.00  0.00    +0.000 OA
ATOM     20  H   UNL     1       4.627   0.800   1.708  1.00  0.00    +0.000 HD
ENDBRANCH  13  19
ENDBRANCH  12  13
ENDBRANCH  11  12
ENDBRANCH   2  11
ENDBRANCH   1  10
BRANCH   1  21
ATOM     21  C   UNL     1      -0.321  -0.341  -1.096  1.00  0.00    +0.000 C 
BRANCH  21  22
ATOM     22  C   UNL     1      -1.333  -1.339  -0.411  1.00  0.00    +0.000 C 
ATOM     23  C   UNL     1      -0.668  -1.879   0.884  1.00  0.00    +0.000 C 
ATOM     24  C   UNL     1      -1.604  -2.534  -1.419  1.00  0.00    +0.000 C 
ATOM     25  C   UNL     1      -0.362  -3.350  -1.815  1.00  0.00    +0.000 C 
ATOM     26  C   UNL     1      -2.679  -3.519  -0.917  1.00  0.00    +0.000 C 
ATOM     27  C   UNL     1      -3.985  -2.834  -0.552  1.00  0.00    +0.000 C 
ATOM     28  C   UNL     1      -3.765  -1.707   0.446  1.00  0.00    +0.000 C 
ATOM     29  O   UNL     1      -5.046  -1.099   0.727  1.00  0.00    +0.000 OA
ATOM     30  C   UNL     1      -4.956   0.331   0.664  1.00  0.00    +0.000 C 
ATOM     31  C   UNL     1      -4.719   0.670  -0.808  1.00  0.00    +0.000 C 
ATOM     32  C   UNL     1      -3.334   0.162  -1.211  1.00  0.00    +0.000 C 
ATOM     33  C   UNL     1      -2.716  -0.658  -0.045  1.00  0.00    +0.000 C 
ATOM     34  O   UNL     1      -2.515   0.276   1.054  1.00  0.00    +0.000 OA
ATOM     35  C   UNL     1      -3.763   0.831   1.547  1.00  0.00    +0.000 C 
ATOM     36  C   UNL     1      -3.909   0.395   3.013  1.00  0.00    +0.000 C 
ATOM     37  C   UNL     1      -3.618   2.359   1.525  1.00  0.00    +0.000 C 
BRANCH  30  38
ATOM     38  O   UNL     1      -6.203   0.858   1.067  1.00  0.00    +0.000 OA
ATOM     39  H   UNL     1      -6.468   0.295   1.815  1.00  0.00    +0.000 HD
ENDBRANCH  30  38
ENDBRANCH  21  22
ENDBRANCH   1  21
TORSDOF 10
