REMARK  Name = /srv/my_project/app/compsite/backup/Dave/CORINA_stuff/newPDBs/SANC00107.pdb
AUTHORGENERATED BY OPEN BABEL 2.3.2
REMARK  11 active torsions:
REMARK  status: ('A' for Active; 'I' for Inactive)
REMARK    1  A    between atoms: C_3  and  O_4
REMARK    2  A    between atoms: O_4  and  C_5
REMARK    3  A    between atoms: C_8  and  C_19
REMARK    4  A    between atoms: C_10  and  O_12
REMARK    5  A    between atoms: C_13  and  O_15
REMARK    6  A    between atoms: C_16  and  O_18
REMARK    7  A    between atoms: C_20  and  C_30
REMARK    8  A    between atoms: C_24  and  O_25
REMARK    9  A    between atoms: C_27  and  O_28
REMARK   10  A    between atoms: C_33  and  O_34
REMARK   11  A    between atoms: C_35  and  O_36
REMARK                            x       y       z     vdW  Elec       q    Type
REMARK                         _______ _______ _______ _____ _____    ______ ____
ROOT
ATOM      1  O   UNL     1       0.238  -2.784   1.065  1.00  0.00    +0.000 OA
ATOM      2  C   UNL     1      -0.659  -1.990   0.782  1.00  0.00    +0.000 A 
ATOM      3  C   UNL     1      -0.552  -0.539   1.079  1.00  0.00    +0.000 A 
ATOM      4  C   UNL     1      -1.597   0.254   0.777  1.00  0.00    +0.000 A 
ATOM      5  O   UNL     1      -2.760  -0.182   0.162  1.00  0.00    +0.000 OA
ATOM      6  C   UNL     1      -2.880  -1.512  -0.150  1.00  0.00    +0.000 A 
ATOM      7  C   UNL     1      -4.063  -1.911  -0.773  1.00  0.00    +0.000 A 
ATOM      8  C   UNL     1      -4.243  -3.248  -1.112  1.00  0.00    +0.000 A 
ATOM      9  C   UNL     1      -3.261  -4.196  -0.839  1.00  0.00    +0.000 A 
ATOM     10  C   UNL     1      -2.082  -3.792  -0.217  1.00  0.00    +0.000 A 
ATOM     11  C   UNL     1      -1.889  -2.449   0.128  1.00  0.00    +0.000 A 
ENDROOT
BRANCH   4  12
ATOM     12  C   UNL     1      -1.581   1.707   1.025  1.00  0.00    +0.000 A 
ATOM     13  C   UNL     1      -1.336   2.227   2.309  1.00  0.00    +0.000 A 
ATOM     14  C   UNL     1      -1.317   3.607   2.529  1.00  0.00    +0.000 A 
ATOM     15  C   UNL     1      -1.547   4.466   1.466  1.00  0.00    +0.000 A 
ATOM     16  C   UNL     1      -1.832   3.963   0.201  1.00  0.00    +0.000 A 
ATOM     17  C   UNL     1      -1.837   2.594  -0.032  1.00  0.00    +0.000 A 
BRANCH  15  18
ATOM     18  O   UNL     1      -1.461   5.812   1.674  1.00  0.00    +0.000 OA
ATOM     19  H   UNL     1      -1.043   6.182   0.874  1.00  0.00    +0.000 HD
ENDBRANCH  15  18
BRANCH  16  20
ATOM     20  O   UNL     1      -2.139   4.808  -0.827  1.00  0.00    +0.000 OA
ATOM     21  H   UNL     1      -2.663   5.531  -0.433  1.00  0.00    +0.000 HD
ENDBRANCH  16  20
ENDBRANCH   4  12
BRANCH   8  22
ATOM     22  O   UNL     1      -5.413  -3.595  -1.720  1.00  0.00    +0.000 OA
ATOM     23  H   UNL     1      -5.405  -4.552  -1.895  1.00  0.00    +0.000 HD
ENDBRANCH   8  22
BRANCH  10  24
ATOM     24  O   UNL     1      -1.153  -4.768   0.028  1.00  0.00    +0.000 OA
ATOM     25  H   UNL     1      -0.383  -4.353   0.478  1.00  0.00    +0.000 HD
ENDBRANCH  10  24
BRANCH   3  26
ATOM     26  O   UNL     1       0.607  -0.083   1.675  1.00  0.00    +0.000 OA
BRANCH  26  27
ATOM     27  C   UNL     1       1.707   0.043   0.752  1.00  0.00    +0.000 C 
ATOM     28  O   UNL     1       1.456  -0.447  -0.572  1.00  0.00    +0.000 OA
ATOM     29  C   UNL     1       2.474  -0.068  -1.519  1.00  0.00    +0.000 C 
ATOM     30  C   UNL     1       3.890  -0.010  -0.903  1.00  0.00    +0.000 C 
ATOM     31  C   UNL     1       3.970  -1.008   0.248  1.00  0.00    +0.000 C 
ATOM     32  C   UNL     1       2.953  -0.663   1.349  1.00  0.00    +0.000 C 
ATOM     33  C   UNL     1       2.052   1.217  -2.222  1.00  0.00    +0.000 C 
BRANCH  30  34
ATOM     34  O   UNL     1       4.198   1.293  -0.385  1.00  0.00    +0.000 OA
ATOM     35  H   UNL     1       5.068   1.191   0.053  1.00  0.00    +0.000 HD
ENDBRANCH  30  34
BRANCH  31  36
ATOM     36  O   UNL     1       5.296  -0.992   0.802  1.00  0.00    +0.000 OA
ATOM     37  H   UNL     1       5.265  -1.609   1.561  1.00  0.00    +0.000 HD
ENDBRANCH  31  36
BRANCH  32  38
ATOM     38  O   UNL     1       2.664  -1.895   2.039  1.00  0.00    +0.000 OA
ATOM     39  H   UNL     1       1.804  -2.232   1.698  1.00  0.00    +0.000 HD
ENDBRANCH  32  38
ENDBRANCH  26  27
ENDBRANCH   3  26
TORSDOF 10
