REMARK  Name = /srv/my_project/app/compsite/backup/Dave/CORINA_stuff/newPDBs/SANC00232.pdb
AUTHORGENERATED BY OPEN BABEL 2.3.2
REMARK  18 active torsions:
REMARK  status: ('A' for Active; 'I' for Inactive)
REMARK    1  A    between atoms: C_1  and  C_2
REMARK    2  A    between atoms: C_3  and  C_26
REMARK    3  A    between atoms: C_4  and  C_25
REMARK    4  A    between atoms: C_8  and  C_23
REMARK    5  A    between atoms: C_8  and  C_24
REMARK    6  A    between atoms: C_11  and  O_19
REMARK    7  A    between atoms: C_13  and  O_15
REMARK    8  A    between atoms: O_15  and  C_16
REMARK    9  A    between atoms: C_16  and  C_18
REMARK   10  A    between atoms: O_19  and  C_20
REMARK   11  A    between atoms: C_20  and  C_22
REMARK   12  A    between atoms: C_26  and  C_27
REMARK   13  A    between atoms: C_27  and  C_28
REMARK   14  A    between atoms: C_28  and  C_35
REMARK   15  A    between atoms: C_29  and  C_30
REMARK   16  A    between atoms: C_30  and  O_31
REMARK   17  A    between atoms: O_31  and  C_32
REMARK   18  A    between atoms: C_32  and  C_34
REMARK                            x       y       z     vdW  Elec       q    Type
REMARK                         _______ _______ _______ _____ _____    ______ ____
ROOT
ATOM      1  C   UNL     1      -0.091   2.894  -0.991  1.00  0.00    +0.000 C 
ATOM      2  C   UNL     1      -0.768   1.618  -0.537  1.00  0.00    +0.000 C 
ATOM      3  C   UNL     1      -0.191   0.387  -0.584  1.00  0.00    +0.000 C 
ATOM      4  C   UNL     1      -0.956  -0.908  -0.161  1.00  0.00    +0.000 C 
ATOM      5  C   UNL     1      -0.053  -1.802   0.749  1.00  0.00    +0.000 C 
ATOM      6  C   UNL     1      -0.781  -2.701   1.753  1.00  0.00    +0.000 C 
ATOM      7  C   UNL     1      -2.199  -3.053   1.338  1.00  0.00    +0.000 C 
ATOM      8  C   UNL     1      -3.092  -1.798   1.157  1.00  0.00    +0.000 C 
ATOM      9  C   UNL     1      -2.240  -0.557   0.673  1.00  0.00    +0.000 C 
ATOM     10  C   UNL     1      -3.061   0.595   0.049  1.00  0.00    +0.000 C 
ATOM     11  C   UNL     1      -2.192   1.868  -0.052  1.00  0.00    +0.000 C 
ATOM     12  C   UNL     1      -4.277  -2.174   0.245  1.00  0.00    +0.000 C 
ATOM     13  C   UNL     1      -3.710  -1.448   2.539  1.00  0.00    +0.000 C 
ATOM     14  C   UNL     1      -1.262  -1.663  -1.480  1.00  0.00    +0.000 C 
ENDROOT
BRANCH  11  15
ATOM     15  O   UNL     1      -2.097   2.437   1.274  1.00  0.00    +0.000 OA
BRANCH  15  16
ATOM     16  C   UNL     1      -2.378   3.760   1.396  1.00  0.00    +0.000 C 
ATOM     17  O   UNL     1      -2.644   4.528   0.484  1.00  0.00    +0.000 OA
ATOM     18  C   UNL     1      -2.290   4.164   2.837  1.00  0.00    +0.000 C 
ENDBRANCH  15  16
ENDBRANCH  11  15
BRANCH  10  19
ATOM     19  O   UNL     1      -3.556   0.221  -1.253  1.00  0.00    +0.000 OA
BRANCH  19  20
ATOM     20  C   UNL     1      -4.654   0.893  -1.691  1.00  0.00    +0.000 C 
ATOM     21  O   UNL     1      -5.247   1.762  -1.069  1.00  0.00    +0.000 OA
ATOM     22  C   UNL     1      -5.040   0.408  -3.054  1.00  0.00    +0.000 C 
ENDBRANCH  19  20
ENDBRANCH  10  19
BRANCH   3  23
ATOM     23  C   UNL     1       1.230   0.193  -1.124  1.00  0.00    +0.000 C 
BRANCH  23  24
ATOM     24  C   UNL     1       2.338   0.678  -0.172  1.00  0.00    +0.000 C 
BRANCH  24  25
ATOM     25  C   UNL     1       3.730   0.403  -0.718  1.00  0.00    +0.000 C 
ATOM     26  C   UNL     1       4.499  -0.554  -0.159  1.00  0.00    +0.000 C 
ATOM     27  C   UNL     1       4.152   1.288  -1.861  1.00  0.00    +0.000 C 
BRANCH  26  28
ATOM     28  C   UNL     1       5.882  -0.989  -0.543  1.00  0.00    +0.000 C 
BRANCH  28  29
ATOM     29  O   UNL     1       6.727  -0.753   0.586  1.00  0.00    +0.000 OA
BRANCH  29  30
ATOM     30  C   UNL     1       8.023  -1.109   0.385  1.00  0.00    +0.000 C 
ATOM     31  O   UNL     1       8.474  -1.603  -0.639  1.00  0.00    +0.000 OA
ATOM     32  C   UNL     1       8.833  -0.814   1.610  1.00  0.00    +0.000 C 
ENDBRANCH  29  30
ENDBRANCH  28  29
ENDBRANCH  26  28
ENDBRANCH  24  25
ENDBRANCH  23  24
ENDBRANCH   3  23
TORSDOF 10
