REMARK  Name = /srv/my_project/app/compsite/backup/Dave/CORINA_stuff/newPDBs/SANC00620.pdb
AUTHORGENERATED BY OPEN BABEL 2.3.2
REMARK  13 active torsions:
REMARK  status: ('A' for Active; 'I' for Inactive)
REMARK    1  A    between atoms: C_2  and  C_3
REMARK    2  A    between atoms: C_3  and  O_4
REMARK    3  A    between atoms: C_9  and  O_10
REMARK    4  A    between atoms: C_15  and  O_16
REMARK    5  A    between atoms: C_18  and  C_19
REMARK    6  A    between atoms: C_19  and  O_20
REMARK    7  A    between atoms: C_24  and  C_26
REMARK    8  A    between atoms: C_26  and  O_27
REMARK    9  A    between atoms: O_27  and  C_28
REMARK   10  A    between atoms: C_28  and  C_29
REMARK   11  A    between atoms: C_31  and  O_33
REMARK   12  A    between atoms: C_34  and  O_36
REMARK   13  A    between atoms: C_37  and  O_39
REMARK                            x       y       z     vdW  Elec       q    Type
REMARK                         _______ _______ _______ _____ _____    ______ ____
ROOT
ATOM      1  C   UNL     1      -1.294  -0.848   0.388  1.00  0.00    +0.000 C 
ATOM      2  C   UNL     1      -1.902  -1.579  -0.818  1.00  0.00    +0.000 A 
ATOM      3  C   UNL     1      -1.190  -2.410  -1.698  1.00  0.00    +0.000 A 
ATOM      4  C   UNL     1      -1.841  -3.144  -2.696  1.00  0.00    +0.000 A 
ATOM      5  C   UNL     1      -3.222  -3.064  -2.842  1.00  0.00    +0.000 A 
ATOM      6  C   UNL     1      -3.947  -2.220  -2.014  1.00  0.00    +0.000 A 
ATOM      7  C   UNL     1      -3.294  -1.464  -1.030  1.00  0.00    +0.000 A 
ATOM      8  C   UNL     1      -4.048  -0.436  -0.278  1.00  0.00    +0.000 C 
ATOM      9  O   UNL     1      -5.277  -0.456  -0.241  1.00  0.00    +0.000 OA
ATOM     10  C   UNL     1      -3.290   0.705   0.282  1.00  0.00    +0.000 A 
ATOM     11  C   UNL     1      -3.934   1.929   0.500  1.00  0.00    +0.000 A 
ATOM     12  C   UNL     1      -3.206   3.046   0.889  1.00  0.00    +0.000 A 
ATOM     13  C   UNL     1      -1.823   2.952   1.073  1.00  0.00    +0.000 A 
ATOM     14  C   UNL     1      -1.187   1.713   0.865  1.00  0.00    +0.000 A 
ATOM     15  C   UNL     1      -1.904   0.561   0.491  1.00  0.00    +0.000 A 
ENDROOT
BRANCH   1  16
ATOM     16  C   UNL     1       0.278  -0.890   0.547  1.00  0.00    +0.000 C 
ATOM     17  O   UNL     1       0.968  -0.421  -0.621  1.00  0.00    +0.000 OA
ATOM     18  C   UNL     1       2.306   0.022  -0.303  1.00  0.00    +0.000 C 
ATOM     19  C   UNL     1       3.047  -0.975   0.628  1.00  0.00    +0.000 C 
ATOM     20  C   UNL     1       2.361  -2.356   0.652  1.00  0.00    +0.000 C 
ATOM     21  C   UNL     1       0.845  -2.272   0.956  1.00  0.00    +0.000 C 
BRANCH  19  22
ATOM     22  O   UNL     1       3.058  -0.427   1.954  1.00  0.00    +0.000 OA
ATOM     23  H   UNL     1       3.567  -1.028   2.527  1.00  0.00    +0.000 HD
ENDBRANCH  19  22
BRANCH  20  24
ATOM     24  O   UNL     1       2.577  -3.028  -0.595  1.00  0.00    +0.000 OA
ATOM     25  H   UNL     1       2.103  -2.538  -1.291  1.00  0.00    +0.000 HD
ENDBRANCH  20  24
BRANCH  21  26
ATOM     26  O   UNL     1       0.581  -2.482   2.351  1.00  0.00    +0.000 OA
ATOM     27  H   UNL     1       0.843  -3.399   2.561  1.00  0.00    +0.000 HD
ENDBRANCH  21  26
BRANCH  18  28
ATOM     28  C   UNL     1       3.047   0.240  -1.631  1.00  0.00    +0.000 C 
BRANCH  28  29
ATOM     29  O   UNL     1       4.372   0.757  -1.434  1.00  0.00    +0.000 OA
BRANCH  29  30
ATOM     30  C   UNL     1       4.449   2.103  -1.239  1.00  0.00    +0.000 C 
ATOM     31  C   UNL     1       5.878   2.513  -1.054  1.00  0.00    +0.000 C 
ATOM     32  O   UNL     1       3.499   2.870  -1.210  1.00  0.00    +0.000 OA
ENDBRANCH  29  30
ENDBRANCH  28  29
ENDBRANCH  18  28
ENDBRANCH   1  16
BRANCH   1  33
ATOM     33  O   UNL     1      -1.879  -1.534   1.524  1.00  0.00    +0.000 OA
ATOM     34  H   UNL     1      -1.186  -1.657   2.203  1.00  0.00    +0.000 HD
ENDBRANCH   1  33
BRANCH   6  35
ATOM     35  O   UNL     1      -5.297  -2.159  -2.233  1.00  0.00    +0.000 OA
ATOM     36  H   UNL     1      -5.685  -1.585  -1.535  1.00  0.00    +0.000 HD
ENDBRANCH   6  35
BRANCH  11  37
ATOM     37  O   UNL     1      -5.281   2.107   0.326  1.00  0.00    +0.000 OA
ATOM     38  H   UNL     1      -5.675   1.226   0.144  1.00  0.00    +0.000 HD
ENDBRANCH  11  37
BRANCH  13  39
ATOM     39  C   UNL     1      -1.026   4.178   1.436  1.00  0.00    +0.000 C 
BRANCH  39  40
ATOM     40  O   UNL     1      -0.007   3.843   2.369  1.00  0.00    +0.000 OA
ATOM     41  H   UNL     1       0.499   4.657   2.529  1.00  0.00    +0.000 HD
ENDBRANCH  39  40
ENDBRANCH  13  39
TORSDOF 12
