REMARK  Name = /srv/my_project/app/compsite/backup/Dave/CORINA_stuff/newPDBs/SANC00664.pdb
AUTHORGENERATED BY OPEN BABEL 2.3.2
REMARK  26 active torsions:
REMARK  status: ('A' for Active; 'I' for Inactive)
REMARK    1  A    between atoms: C_2  and  O_3
REMARK    2  A    between atoms: O_3  and  C_4
REMARK    3  A    between atoms: C_7  and  O_9
REMARK    4  A    between atoms: C_20  and  C_21
REMARK    5  A    between atoms: C_25  and  O_27
REMARK    6  A    between atoms: O_27  and  C_28
REMARK    7  A    between atoms: C_31  and  C_33
REMARK    8  A    between atoms: C_33  and  O_34
REMARK    9  A    between atoms: C_35  and  O_37
REMARK   10  A    between atoms: C_38  and  O_40
REMARK   11  A    between atoms: C_41  and  O_43
REMARK   12  A    between atoms: C_44  and  C_46
REMARK   13  A    between atoms: C_46  and  C_48
REMARK   14  A    between atoms: C_46  and  C_49
REMARK   15  A    between atoms: C_49  and  O_51
REMARK   16  A    between atoms: C_49  and  C_52
REMARK   17  A    between atoms: C_52  and  C_53
REMARK   18  A    between atoms: C_53  and  C_54
REMARK   19  A    between atoms: C_54  and  C_55
REMARK   20  A    between atoms: C_54  and  C_56
REMARK   21  A    between atoms: C_57  and  C_58
REMARK   22  A    between atoms: C_60  and  C_62
REMARK   23  A    between atoms: C_62  and  O_63
REMARK   24  A    between atoms: C_64  and  O_66
REMARK   25  A    between atoms: C_67  and  O_69
REMARK   26  A    between atoms: C_70  and  O_72
REMARK                            x       y       z     vdW  Elec       q    Type
REMARK                         _______ _______ _______ _____ _____    ______ ____
ROOT
ATOM      1  C   UNL     1       4.796   0.169  -1.831  1.00  0.00    +0.000 C 
ATOM      2  C   UNL     1       6.084   0.858  -2.311  1.00  0.00    +0.000 C 
ATOM      3  C   UNL     1       5.857   1.816  -3.467  1.00  0.00    +0.000 C 
ATOM      4  C   UNL     1       4.854   2.892  -3.078  1.00  0.00    +0.000 C 
ATOM      5  C   UNL     1       3.548   2.270  -2.651  1.00  0.00    +0.000 C 
ATOM      6  C   UNL     1       2.407   2.683  -3.232  1.00  0.00    +0.000 C 
ATOM      7  C   UNL     1       1.041   2.184  -2.891  1.00  0.00    +0.000 C 
ATOM      8  C   UNL     1       1.001   1.351  -1.603  1.00  0.00    +0.000 C 
ATOM      9  C   UNL     1       2.223   0.383  -1.550  1.00  0.00    +0.000 C 
ATOM     10  C   UNL     1       2.085  -0.675  -0.429  1.00  0.00    +0.000 C 
ATOM     11  C   UNL     1       0.715  -1.372  -0.367  1.00  0.00    +0.000 C 
ATOM     12  C   UNL     1      -0.428  -0.353  -0.279  1.00  0.00    +0.000 C 
ATOM     13  C   UNL     1      -0.324   0.438   1.044  1.00  0.00    +0.000 C 
ATOM     14  C   UNL     1      -0.311   0.560  -1.524  1.00  0.00    +0.000 C 
ATOM     15  C   UNL     1      -1.627   1.331  -1.510  1.00  0.00    +0.000 C 
ATOM     16  C   UNL     1      -2.677   0.279  -1.075  1.00  0.00    +0.000 C 
ATOM     17  C   UNL     1      -1.847  -0.945  -0.555  1.00  0.00    +0.000 C 
ATOM     18  C   UNL     1       3.603   1.181  -1.554  1.00  0.00    +0.000 C 
ATOM     19  C   UNL     1       3.836   1.909  -0.206  1.00  0.00    +0.000 C 
ENDROOT
BRANCH  17  20
ATOM     20  C   UNL     1      -2.518  -1.986   0.406  1.00  0.00    +0.000 C 
ATOM     21  C   UNL     1      -3.800  -2.483  -0.293  1.00  0.00    +0.000 C 
BRANCH  20  22
ATOM     22  C   UNL     1      -2.772  -1.562   1.876  1.00  0.00    +0.000 C 
BRANCH  22  23
ATOM     23  O   UNL     1      -3.808  -0.597   1.984  1.00  0.00    +0.000 OA
ATOM     24  H   UNL     1      -3.492   0.157   1.437  1.00  0.00    +0.000 HD
ENDBRANCH  22  23
BRANCH  22  25
ATOM     25  C   UNL     1      -2.979  -2.690   2.909  1.00  0.00    +0.000 C 
BRANCH  25  26
ATOM     26  C   UNL     1      -4.206  -3.606   2.846  1.00  0.00    +0.000 C 
BRANCH  26  27
ATOM     27  C   UNL     1      -5.589  -2.935   2.847  1.00  0.00    +0.000 C 
ATOM     28  C   UNL     1      -6.680  -4.001   2.698  1.00  0.00    +0.000 C 
ATOM     29  C   UNL     1      -5.840  -2.122   4.118  1.00  0.00    +0.000 C 
ENDBRANCH  26  27
ENDBRANCH  25  26
ENDBRANCH  22  25
ENDBRANCH  20  22
ENDBRANCH  17  20
BRANCH   3  30
ATOM     30  O   UNL     1       7.105   2.404  -3.830  1.00  0.00    +0.000 OA
ATOM     31  H   UNL     1       7.380   3.007  -3.117  1.00  0.00    +0.000 HD
ENDBRANCH   3  30
BRANCH  16  32
ATOM     32  O   UNL     1      -3.549   0.802  -0.079  1.00  0.00    +0.000 OA
BRANCH  32  33
ATOM     33  C   UNL     1      -4.639   1.572  -0.630  1.00  0.00    +0.000 C 
ATOM     34  O   UNL     1      -4.130   2.818  -1.098  1.00  0.00    +0.000 OA
ATOM     35  C   UNL     1      -5.048   3.927  -1.138  1.00  0.00    +0.000 C 
ATOM     36  C   UNL     1      -6.518   3.488  -1.189  1.00  0.00    +0.000 C 
ATOM     37  C   UNL     1      -6.882   2.570  -0.018  1.00  0.00    +0.000 C 
ATOM     38  C   UNL     1      -5.690   1.744   0.485  1.00  0.00    +0.000 C 
BRANCH  38  39
ATOM     39  O   UNL     1      -6.200   0.495   0.984  1.00  0.00    +0.000 OA
ATOM     40  H   UNL     1      -5.438  -0.008   1.346  1.00  0.00    +0.000 HD
ENDBRANCH  38  39
BRANCH  37  41
ATOM     41  O   UNL     1      -7.390   3.353   1.075  1.00  0.00    +0.000 OA
ATOM     42  H   UNL     1      -7.682   2.702   1.744  1.00  0.00    +0.000 HD
ENDBRANCH  37  41
BRANCH  36  43
ATOM     43  O   UNL     1      -6.746   2.766  -2.413  1.00  0.00    +0.000 OA
ATOM     44  H   UNL     1      -6.523   3.360  -3.152  1.00  0.00    +0.000 HD
ENDBRANCH  36  43
BRANCH  35  45
ATOM     45  C   UNL     1      -4.763   4.890   0.029  1.00  0.00    +0.000 C 
BRANCH  45  46
ATOM     46  O   UNL     1      -3.535   5.583  -0.209  1.00  0.00    +0.000 OA
ATOM     47  H   UNL     1      -3.320   6.067   0.607  1.00  0.00    +0.000 HD
ENDBRANCH  45  46
ENDBRANCH  35  45
ENDBRANCH  32  33
ENDBRANCH  16  32
BRANCH   1  48
ATOM     48  O   UNL     1       5.115  -0.576  -0.632  1.00  0.00    +0.000 OA
BRANCH  48  49
ATOM     49  C   UNL     1       5.827  -1.801  -0.854  1.00  0.00    +0.000 C 
ATOM     50  O   UNL     1       5.205  -2.849  -0.108  1.00  0.00    +0.000 OA
ATOM     51  C   UNL     1       5.336  -2.784   1.320  1.00  0.00    +0.000 C 
ATOM     52  C   UNL     1       6.547  -1.977   1.808  1.00  0.00    +0.000 C 
ATOM     53  C   UNL     1       7.693  -2.235   0.846  1.00  0.00    +0.000 C 
ATOM     54  C   UNL     1       7.342  -1.647  -0.522  1.00  0.00    +0.000 C 
BRANCH  54  55
ATOM     55  O   UNL     1       8.188  -2.304  -1.485  1.00  0.00    +0.000 OA
ATOM     56  H   UNL     1       8.028  -1.895  -2.354  1.00  0.00    +0.000 HD
ENDBRANCH  54  55
BRANCH  53  57
ATOM     57  O   UNL     1       8.892  -1.628   1.358  1.00  0.00    +0.000 OA
ATOM     58  H   UNL     1       9.581  -1.816   0.690  1.00  0.00    +0.000 HD
ENDBRANCH  53  57
BRANCH  52  59
ATOM     59  O   UNL     1       6.901  -2.360   3.142  1.00  0.00    +0.000 OA
ATOM     60  H   UNL     1       7.833  -2.072   3.244  1.00  0.00    +0.000 HD
ENDBRANCH  52  59
BRANCH  51  61
ATOM     61  C   UNL     1       4.050  -2.291   1.995  1.00  0.00    +0.000 C 
BRANCH  61  62
ATOM     62  O   UNL     1       4.051  -2.537   3.400  1.00  0.00    +0.000 OA
ATOM     63  H   UNL     1       4.973  -2.444   3.718  1.00  0.00    +0.000 HD
ENDBRANCH  61  62
ENDBRANCH  51  61
ENDBRANCH  48  49
ENDBRANCH   1  48
TORSDOF 21
