REMARK  Name = /srv/my_project/app/compsite/backup/Dave/CORINA_stuff/newPDBs/SANC00476.pdb
AUTHORGENERATED BY OPEN BABEL 2.3.2
REMARK  6 active torsions:
REMARK  status: ('A' for Active; 'I' for Inactive)
REMARK    1  A    between atoms: C_7  and  O_9
REMARK    2  A    between atoms: C_10  and  C_11
REMARK    3  A    between atoms: C_14  and  C_16
REMARK    4  A    between atoms: C_16  and  C_17
REMARK    5  A    between atoms: C_16  and  C_18
REMARK    6  A    between atoms: C_19  and  O_21
REMARK                            x       y       z     vdW  Elec       q    Type
REMARK                         _______ _______ _______ _____ _____    ______ ____
ROOT
ATOM      1  C   UNL     1      -0.883   0.436   0.539  1.00  0.00    +0.000 C 
ATOM      2  C   UNL     1      -1.906   1.552   0.250  1.00  0.00    +0.000 C 
ATOM      3  C   UNL     1      -1.634   2.868   0.200  1.00  0.00    +0.000 C 
ATOM      4  C   UNL     1      -3.326   1.102  -0.030  1.00  0.00    +0.000 C 
ATOM      5  C   UNL     1      -3.588  -0.322   0.436  1.00  0.00    +0.000 C 
ATOM      6  C   UNL     1      -2.590  -1.335  -0.142  1.00  0.00    +0.000 C 
ATOM      7  C   UNL     1      -1.152  -0.767  -0.412  1.00  0.00    +0.000 C 
ATOM      8  C   UNL     1      -0.977  -0.364  -1.902  1.00  0.00    +0.000 C 
ATOM      9  C   UNL     1      -0.146  -1.894  -0.089  1.00  0.00    +0.000 C 
ATOM     10  C   UNL     1       1.307  -1.461  -0.197  1.00  0.00    +0.000 C 
ATOM     11  C   UNL     1       1.648  -0.273   0.718  1.00  0.00    +0.000 C 
ATOM     12  C   UNL     1       0.616   0.880   0.567  1.00  0.00    +0.000 C 
ENDROOT
BRANCH  11  13
ATOM     13  C   UNL     1       3.128   0.191   0.460  1.00  0.00    +0.000 C 
ATOM     14  C   UNL     1       4.136  -0.951   0.669  1.00  0.00    +0.000 C 
ATOM     15  C   UNL     1       3.575   1.377   1.323  1.00  0.00    +0.000 C 
ENDBRANCH  11  13
BRANCH   6  16
ATOM     16  O   UNL     1      -3.127  -1.921  -1.328  1.00  0.00    +0.000 OA
ATOM     17  H   UNL     1      -3.975  -2.338  -1.098  1.00  0.00    +0.000 HD
ENDBRANCH   6  16
BRANCH  12  18
ATOM     18  O   UNL     1       0.794   1.771   1.681  1.00  0.00    +0.000 OA
ATOM     19  H   UNL     1       0.472   1.323   2.481  1.00  0.00    +0.000 HD
ENDBRANCH  12  18
TORSDOF 3
