REMARK  Name = /srv/my_project/app/compsite/backup/Dave/CORINA_stuff/newPDBs/SANC00385.pdb
AUTHORGENERATED BY OPEN BABEL 2.3.2
REMARK  9 active torsions:
REMARK  status: ('A' for Active; 'I' for Inactive)
REMARK    1  A    between atoms: C_1  and  O_2
REMARK    2  A    between atoms: O_2  and  C_3
REMARK    3  A    between atoms: C_6  and  C_7
REMARK    4  A    between atoms: C_7  and  C_8
REMARK    5  A    between atoms: C_12  and  O_13
REMARK    6  A    between atoms: C_14  and  O_15
REMARK    7  A    between atoms: O_15  and  C_16
REMARK    8  A    between atoms: N_21  and  C_22
REMARK    9  A    between atoms: C_24  and  O_25
REMARK                            x       y       z     vdW  Elec       q    Type
REMARK                         _______ _______ _______ _____ _____    ______ ____
ROOT
ATOM      1  C   UNL     1      -0.224   0.396   0.152  1.00  0.00    +0.000 C 
ATOM      2  C   UNL     1      -1.727   0.493  -0.166  1.00  0.00    +0.000 A 
ATOM      3  C   UNL     1      -2.197   0.616  -1.482  1.00  0.00    +0.000 A 
ATOM      4  C   UNL     1      -3.559   0.752  -1.736  1.00  0.00    +0.000 A 
ATOM      5  C   UNL     1      -4.502   0.785  -0.708  1.00  0.00    +0.000 A 
ATOM      6  C   UNL     1      -4.053   0.685   0.605  1.00  0.00    +0.000 A 
ATOM      7  C   UNL     1      -2.676   0.555   0.883  1.00  0.00    +0.000 A 
ATOM      8  C   UNL     1      -2.245   0.420   2.325  1.00  0.00    +0.000 C 
ATOM      9  C   UNL     1      -0.731   0.543   2.512  1.00  0.00    +0.000 C 
ATOM     10  N   UNL     1       0.050  -0.176   1.499  1.00  0.00    +0.000 NA
ATOM     11  C   UNL     1      -0.144  -1.624   1.581  1.00  0.00    +0.000 C 
ENDROOT
BRANCH   4  12
ATOM     12  O   UNL     1      -3.961   0.860  -3.041  1.00  0.00    +0.000 OA
ATOM     13  H   UNL     1      -4.934   0.942  -2.997  1.00  0.00    +0.000 HD
ENDBRANCH   4  12
BRANCH   5  14
ATOM     14  O   UNL     1      -5.803   0.919  -1.116  1.00  0.00    +0.000 OA
ATOM     15  C   UNL     1      -6.791   0.945  -0.092  1.00  0.00    +0.000 C 
ENDBRANCH   5  14
BRANCH   1  16
ATOM     16  C   UNL     1       0.631  -0.264  -0.977  1.00  0.00    +0.000 C 
BRANCH  16  20
ATOM     17  C   UNL     1       4.920  -0.652  -0.401  1.00  0.00    +0.000 A 
ATOM     18  C   UNL     1       4.265   0.501   0.027  1.00  0.00    +0.000 A 
ATOM     19  C   UNL     1       2.880   0.630  -0.149  1.00  0.00    +0.000 A 
ATOM     20  C   UNL     1       2.126  -0.394  -0.742  1.00  0.00    +0.000 A 
ATOM     21  C   UNL     1       2.793  -1.543  -1.187  1.00  0.00    +0.000 A 
ATOM     22  C   UNL     1       4.168  -1.662  -1.008  1.00  0.00    +0.000 A 
BRANCH  17  24
ATOM     23  C   UNL     1       7.051   0.088   0.341  1.00  0.00    +0.000 C 
ATOM     24  O   UNL     1       6.262  -0.911  -0.293  1.00  0.00    +0.000 OA
ENDBRANCH  17  24
BRANCH  22  25
ATOM     25  O   UNL     1       4.780  -2.805  -1.449  1.00  0.00    +0.000 OA
ATOM     26  H   UNL     1       5.723  -2.680  -1.227  1.00  0.00    +0.000 HD
ENDBRANCH  22  25
ENDBRANCH  16  20
ENDBRANCH   1  16
TORSDOF 6
