REMARK  Name = /srv/my_project/app/compsite/backup/Dave/CORINA_stuff/newPDBs/SANC00113.pdb
AUTHORGENERATED BY OPEN BABEL 2.3.2
REMARK  5 active torsions:
REMARK  status: ('A' for Active; 'I' for Inactive)
REMARK    1  A    between atoms: C_10  and  O_11
REMARK    2  A    between atoms: O_11  and  C_12
REMARK    3  A    between atoms: C_12  and  C_14
REMARK    4  A    between atoms: C_14  and  C_15
REMARK    5  A    between atoms: C_16  and  C_17
REMARK                            x       y       z     vdW  Elec       q    Type
REMARK                         _______ _______ _______ _____ _____    ______ ____
ROOT
ATOM      1  C   UNL     1      -1.850  -0.189   0.923  1.00  0.00    +0.000 C 
ATOM      2  C   UNL     1      -2.128   0.312  -0.465  1.00  0.00    +0.000 C 
ATOM      3  C   UNL     1      -2.038   1.574  -0.903  1.00  0.00    +0.000 C 
ATOM      4  C   UNL     1      -2.498  -0.868  -1.313  1.00  0.00    +0.000 C 
ATOM      5  C   UNL     1      -1.777  -2.005  -0.599  1.00  0.00    +0.000 C 
ATOM      6  N   UNL     1      -1.886  -1.677   0.830  1.00  0.00    +0.000 NA
ATOM      7  C   UNL     1      -0.767  -2.203   1.623  1.00  0.00    +0.000 C 
ATOM      8  C   UNL     1      -0.347  -1.056   2.534  1.00  0.00    +0.000 C 
ATOM      9  C   UNL     1      -0.543   0.170   1.651  1.00  0.00    +0.000 C 
ENDROOT
BRANCH   9  10
ATOM     10  O   UNL     1       0.599   0.248   0.773  1.00  0.00    +0.000 OA
BRANCH  10  11
ATOM     11  C   UNL     1       1.089   1.491   0.548  1.00  0.00    +0.000 C 
ATOM     12  O   UNL     1       0.636   2.537   0.988  1.00  0.00    +0.000 OA
BRANCH  11  13
ATOM     13  C   UNL     1       2.371   1.423  -0.209  1.00  0.00    +0.000 C 
ATOM     14  C   UNL     1       3.412   2.384   0.289  1.00  0.00    +0.000 C 
ATOM     15  C   UNL     1       2.605   0.599  -1.249  1.00  0.00    +0.000 C 
ATOM     16  C   UNL     1       1.647  -0.337  -1.912  1.00  0.00    +0.000 C 
ENDBRANCH  11  13
ENDBRANCH  10  11
ENDBRANCH   9  10
TORSDOF 3
