REMARK  Name = [H][C@]2(N)[C@@H]4C(=O)C=C1S[C@@H]3C[C@]12c5c(N3)c(=O)c7[nH]cc6CC[N+]4=c5c67
REMARK  1 active torsions:
REMARK  status: ('A' for Active; 'I' for Inactive)
REMARK    1  A    between atoms: N_2  and  C_25
REMARK                            x       y       z     vdW  Elec       q    Type
REMARK                         _______ _______ _______ _____ _____    ______ ____
ROOT
ATOM      1  O   UNL     1      -0.685   3.253   1.703  1.00  0.00    +0.000 OA
ATOM      2  O   UNL     1       1.445  -3.863   0.773  1.00  0.00    +0.000 OA
ATOM      3  C   UNL     1      -1.922   1.256   1.849  1.00  0.00    +0.000 C 
ATOM      4  C   UNL     1       4.265  -0.653  -0.102  1.00  0.00    +0.000 A 
ATOM      5  C   UNL     1       3.195   1.704  -0.698  1.00  0.00    +0.000 C 
ATOM      6  C   UNL     1       1.846   2.367  -0.272  1.00  0.00    +0.000 C 
ATOM      7  C   UNL     1      -2.734  -1.350  -0.591  1.00  0.00    +0.000 C 
ATOM      8  N   UNL     1      -1.261  -2.919   0.496  1.00  0.00    +0.000 N 
ATOM      9  N   UNL     1       3.685  -1.879   0.209  1.00  0.00    +0.000 N 
ATOM     10  S   UNL     1      -2.862  -1.312   2.038  1.00  0.00    +0.000 S 
ATOM     11  C   UNL     1      -1.134   2.280   1.100  1.00  0.00    +0.000 C 
ATOM     12  C   UNL     1      -2.153   0.080   1.254  1.00  0.00    +0.000 C 
ATOM     13  C   UNL     1       3.260   0.265  -0.309  1.00  0.00    +0.000 A 
ATOM     14  C   UNL     1      -0.144  -2.122   0.246  1.00  0.00    +0.000 C 
ATOM     15  C   UNL     1      -0.327  -0.820  -0.086  1.00  0.00    +0.000 C 
ATOM     16  C   UNL     1       1.269  -2.701   0.434  1.00  0.00    +0.000 C 
ATOM     17  C   UNL     1       0.784   0.156  -0.212  1.00  0.00    +0.000 C 
ATOM     18  C   UNL     1       2.318  -1.742   0.188  1.00  0.00    +0.000 A 
ATOM     19  C   UNL     1       2.069  -0.434  -0.117  1.00  0.00    +0.000 A 
ATOM     20  C   UNL     1      -2.619  -2.380   0.544  1.00  0.00    +0.000 C 
ATOM     21  C   UNL     1      -0.755   2.022  -0.362  1.00  0.00    +0.000 C 
ATOM     22  N   UNL     1       0.635   1.431  -0.346  1.00  0.00    +0.000 N 
ATOM     23  C   UNL     1      -1.722   1.020  -1.052  1.00  0.00    +0.000 C 
ATOM     24  C   UNL     1      -1.739  -0.250  -0.169  1.00  0.00    +0.000 C 
ATOM     25  H   UNL     1      -1.067  -3.743   1.072  1.00  0.00    +0.000 HD
ATOM     26  H   UNL     1       4.186  -2.739   0.411  1.00  0.00    +0.000 HD
ENDROOT
BRANCH  23  27
ATOM     27  N   UNL     1      -3.027   1.633  -1.319  1.00  0.00    +0.000 NA
ATOM     28  H   UNL     1      -3.558   1.097  -2.013  1.00  0.00    +0.000 HD
ATOM     29  H   UNL     1      -3.637   1.675  -0.498  1.00  0.00    +0.000 HD
ENDBRANCH  23  27
TORSDOF 1
