REMARK  Name = SANCDB_01068_minRM1.pdb
AUTHORGENERATED BY OPEN BABEL 2.3.2
REMARK  10 active torsions:
REMARK  status: ('A' for Active; 'I' for Inactive)
REMARK    1  A    between atoms: C_3  and  O_31
REMARK    2  A    between atoms: C_6  and  C_7
REMARK    3  A    between atoms: C_14  and  O_30
REMARK    4  A    between atoms: C_16  and  O_29
REMARK    5  A    between atoms: C_17  and  C_18
REMARK    6  A    between atoms: C_19  and  O_28
REMARK    7  A    between atoms: C_20  and  O_27
REMARK    8  A    between atoms: C_21  and  O_26
REMARK    9  A    between atoms: C_22  and  C_24
REMARK   10  A    between atoms: C_24  and  O_25
REMARK                            x       y       z     vdW  Elec       q    Type
REMARK                         _______ _______ _______ _____ _____    ______ ____
ROOT
ATOM      1  C   UNL     1       3.053  -0.342   0.224  1.00  0.00    +0.000 A 
ATOM      2  C   UNL     1       1.948  -1.049   0.502  1.00  0.00    +0.000 A 
ATOM      3  O   UNL     1       0.648  -0.628   0.378  1.00  0.00    +0.000 OA
ATOM      4  C   UNL     1       0.409   0.653  -0.063  1.00  0.00    +0.000 A 
ATOM      5  C   UNL     1       1.457   1.521  -0.385  1.00  0.00    +0.000 A 
ATOM      6  C   UNL     1       2.847   1.051  -0.249  1.00  0.00    +0.000 A 
ATOM      7  O   UNL     1       3.773   1.808  -0.529  1.00  0.00    +0.000 OA
ATOM      8  C   UNL     1       1.177   2.817  -0.829  1.00  0.00    +0.000 A 
ATOM      9  C   UNL     1      -0.138   3.249  -0.949  1.00  0.00    +0.000 A 
ATOM     10  C   UNL     1      -1.180   2.380  -0.624  1.00  0.00    +0.000 A 
ATOM     11  C   UNL     1      -0.935   1.067  -0.179  1.00  0.00    +0.000 A 
ENDROOT
BRANCH   1  17
ATOM     12  C   UNL     1       5.359  -0.249   1.175  1.00  0.00    +0.000 A 
ATOM     13  C   UNL     1       6.626  -0.803   1.368  1.00  0.00    +0.000 A 
ATOM     14  C   UNL     1       6.935  -2.032   0.801  1.00  0.00    +0.000 A 
ATOM     15  C   UNL     1       5.997  -2.720   0.040  1.00  0.00    +0.000 A 
ATOM     16  C   UNL     1       4.727  -2.165  -0.151  1.00  0.00    +0.000 A 
ATOM     17  C   UNL     1       4.392  -0.925   0.418  1.00  0.00    +0.000 A 
BRANCH  14  18
ATOM     18  O   UNL     1       8.184  -2.535   1.015  1.00  0.00    +0.000 OA
ATOM     19  H   UNL     1       8.267  -3.377   0.538  1.00  0.00    +0.000 HD
ENDBRANCH  14  18
ENDBRANCH   1  17
BRANCH  11  20
ATOM     20  C   UNL     1      -2.072   0.120   0.173  1.00  0.00    +0.000 C 
ATOM     21  C   UNL     1      -2.862   0.595   1.413  1.00  0.00    +0.000 C 
ATOM     22  C   UNL     1      -4.111  -0.272   1.607  1.00  0.00    +0.000 C 
ATOM     23  C   UNL     1      -4.922  -0.406   0.318  1.00  0.00    +0.000 C 
ATOM     24  C   UNL     1      -4.011  -0.906  -0.805  1.00  0.00    +0.000 C 
ATOM     25  O   UNL     1      -2.906  -0.005  -0.992  1.00  0.00    +0.000 OA
BRANCH  23  26
ATOM     26  O   UNL     1      -6.012  -1.302   0.538  1.00  0.00    +0.000 OA
ATOM     27  H   UNL     1      -6.358  -1.109   1.432  1.00  0.00    +0.000 HD
ENDBRANCH  23  26
BRANCH  22  28
ATOM     28  O   UNL     1      -4.939   0.283   2.647  1.00  0.00    +0.000 OA
ATOM     29  H   UNL     1      -5.195   1.186   2.380  1.00  0.00    +0.000 HD
ENDBRANCH  22  28
BRANCH  21  30
ATOM     30  O   UNL     1      -2.061   0.506   2.602  1.00  0.00    +0.000 OA
ATOM     31  H   UNL     1      -2.673   0.601   3.357  1.00  0.00    +0.000 HD
ENDBRANCH  21  30
BRANCH  24  32
ATOM     32  C   UNL     1      -4.757  -0.991  -2.140  1.00  0.00    +0.000 C 
BRANCH  32  33
ATOM     33  O   UNL     1      -3.851  -1.403  -3.167  1.00  0.00    +0.000 OA
ATOM     34  H   UNL     1      -3.063  -0.835  -3.054  1.00  0.00    +0.000 HD
ENDBRANCH  32  33
ENDBRANCH  24  32
ENDBRANCH  11  20
BRANCH  10  35
ATOM     35  O   UNL     1      -2.471   2.823  -0.736  1.00  0.00    +0.000 OA
ATOM     36  H   UNL     1      -2.465   3.683  -1.190  1.00  0.00    +0.000 HD
ENDBRANCH  10  35
BRANCH   8  37
ATOM     37  O   UNL     1       2.148   3.722  -1.165  1.00  0.00    +0.000 OA
ATOM     38  H   UNL     1       3.025   3.292  -1.038  1.00  0.00    +0.000 HD
ENDBRANCH   8  37
TORSDOF 10
