REMARK  Name = /srv/my_project/app/compsite/backup/Dave/CORINA_stuff/newPDBs/SANC00528.pdb
AUTHORGENERATED BY OPEN BABEL 2.3.2
REMARK  12 active torsions:
REMARK  status: ('A' for Active; 'I' for Inactive)
REMARK    1  A    between atoms: C_9  and  C_10
REMARK    2  A    between atoms: C_11  and  C_12
REMARK    3  A    between atoms: C_17  and  C_19
REMARK    4  A    between atoms: C_19  and  C_21
REMARK    5  A    between atoms: C_21  and  C_22
REMARK    6  A    between atoms: C_24  and  C_25
REMARK    7  A    between atoms: C_26  and  C_27
REMARK    8  A    between atoms: C_30  and  O_32
REMARK    9  A    between atoms: C_33  and  C_34
REMARK   10  A    between atoms: C_33  and  C_36
REMARK   11  A    between atoms: C_34  and  O_35
REMARK   12  A    between atoms: C_36  and  O_37
REMARK                            x       y       z     vdW  Elec       q    Type
REMARK                         _______ _______ _______ _____ _____    ______ ____
ROOT
ATOM      1  C   UNL     1      -3.279   0.303   0.631  1.00  0.00    +0.000 C 
ATOM      2  C   UNL     1      -2.846   1.725   0.243  1.00  0.00    +0.000 C 
ATOM      3  C   UNL     1      -1.334   1.898   0.385  1.00  0.00    +0.000 C 
ATOM      4  C   UNL     1      -0.504   0.678   0.052  1.00  0.00    +0.000 C 
ATOM      5  C   UNL     1      -1.043  -0.529  -0.263  1.00  0.00    +0.000 C 
ATOM      6  C   UNL     1      -0.158  -1.727  -0.632  1.00  0.00    +0.000 C 
ATOM      7  C   UNL     1       1.368  -1.504  -0.690  1.00  0.00    +0.000 C 
ATOM      8  C   UNL     1       1.725  -0.039  -0.968  1.00  0.00    +0.000 C 
ATOM      9  C   UNL     1       1.197   0.323  -2.394  1.00  0.00    +0.000 C 
ATOM     10  C   UNL     1       1.015   0.838   0.145  1.00  0.00    +0.000 C 
ATOM     11  C   UNL     1       1.340   0.500   1.634  1.00  0.00    +0.000 C 
ATOM     12  C   UNL     1       1.644   2.211  -0.154  1.00  0.00    +0.000 C 
ATOM     13  C   UNL     1       3.113   1.913  -0.531  1.00  0.00    +0.000 C 
ATOM     14  C   UNL     1       3.228   0.387  -0.813  1.00  0.00    +0.000 C 
ATOM     15  O   UNL     1       3.753  -0.249   0.386  1.00  0.00    +0.000 OA
ATOM     16  C   UNL     1       4.706  -1.265   0.046  1.00  0.00    +0.000 C 
ATOM     17  C   UNL     1       4.764  -1.320  -1.468  1.00  0.00    +0.000 C 
ATOM     18  C   UNL     1       4.331   0.082  -1.845  1.00  0.00    +0.000 C 
ATOM     19  C   UNL     1       4.101   0.239  -3.335  1.00  0.00    +0.000 C 
ATOM     20  C   UNL     1      -2.583  -0.744  -0.325  1.00  0.00    +0.000 C 
ATOM     21  C   UNL     1      -2.957  -0.598  -1.820  1.00  0.00    +0.000 C 
ATOM     22  C   UNL     1      -2.974  -2.166   0.153  1.00  0.00    +0.000 C 
ATOM     23  C   UNL     1      -4.476  -2.368   0.310  1.00  0.00    +0.000 C 
ATOM     24  C   UNL     1      -5.071  -1.376   1.300  1.00  0.00    +0.000 C 
ATOM     25  C   UNL     1      -4.824   0.114   0.913  1.00  0.00    +0.000 C 
ENDROOT
BRANCH  16  26
ATOM     26  C   UNL     1       6.050  -0.937   0.708  1.00  0.00    +0.000 C 
ATOM     27  O   UNL     1       7.112  -0.899   0.083  1.00  0.00    +0.000 OA
BRANCH  26  28
ATOM     28  C   UNL     1       6.028  -0.683   2.203  1.00  0.00    +0.000 C 
ATOM     29  C   UNL     1       6.167   0.796   2.501  1.00  0.00    +0.000 C 
ENDBRANCH  26  28
ENDBRANCH  16  26
BRANCH  24  30
ATOM     30  O   UNL     1      -6.461  -1.669   1.427  1.00  0.00    +0.000 OA
ATOM     31  H   UNL     1      -6.809  -1.027   2.085  1.00  0.00    +0.000 HD
ENDBRANCH  24  30
BRANCH  25  32
ATOM     32  C   UNL     1      -5.768   0.525  -0.245  1.00  0.00    +0.000 C 
BRANCH  32  33
ATOM     33  O   UNL     1      -5.649   1.908  -0.560  1.00  0.00    +0.000 OA
ATOM     34  H   UNL     1      -6.203   2.066  -1.345  1.00  0.00    +0.000 HD
ENDBRANCH  32  33
ENDBRANCH  25  32
BRANCH  25  35
ATOM     35  C   UNL     1      -5.208   0.981   2.156  1.00  0.00    +0.000 C 
BRANCH  35  36
ATOM     36  O   UNL     1      -6.560   0.751   2.564  1.00  0.00    +0.000 OA
ATOM     37  H   UNL     1      -7.092   1.454   2.145  1.00  0.00    +0.000 HD
ENDBRANCH  35  36
ENDBRANCH  25  35
TORSDOF 7
