REMARK  Name = SANCDB_01038_minRM1.pdb
AUTHORGENERATED BY OPEN BABEL 2.3.2
REMARK  6 active torsions:
REMARK  status: ('A' for Active; 'I' for Inactive)
REMARK    1  A    between atoms: C_1  and  C_2
REMARK    2  A    between atoms: C_2  and  C_20
REMARK    3  A    between atoms: C_6  and  C_19
REMARK    4  A    between atoms: C_10  and  C_17
REMARK    5  A    between atoms: C_10  and  C_18
REMARK    6  A    between atoms: C_14  and  C_16
REMARK                            x       y       z     vdW  Elec       q    Type
REMARK                         _______ _______ _______ _____ _____    ______ ____
ROOT
ATOM      1  C   UNL     1       4.407  -0.704   1.805  1.00  0.00    +0.000 C 
ATOM      2  C   UNL     1       3.484  -0.251   0.656  1.00  0.00    +0.000 C 
ATOM      3  C   UNL     1       2.919   1.137   1.023  1.00  0.00    +0.000 C 
ATOM      4  C   UNL     1       1.663   1.506   0.237  1.00  0.00    +0.000 C 
ATOM      5  C   UNL     1       0.635   0.374   0.397  1.00  0.00    +0.000 C 
ATOM      6  C   UNL     1      -0.836   0.707  -0.060  1.00  0.00    +0.000 C 
ATOM      7  C   UNL     1      -1.347   1.942   0.757  1.00  0.00    +0.000 C 
ATOM      8  C   UNL     1      -2.823   1.902   1.161  1.00  0.00    +0.000 C 
ATOM      9  C   UNL     1      -3.696   1.157   0.164  1.00  0.00    +0.000 C 
ATOM     10  C   UNL     1      -3.279  -0.328   0.003  1.00  0.00    +0.000 C 
ATOM     11  C   UNL     1      -1.743  -0.526   0.295  1.00  0.00    +0.000 C 
ATOM     12  C   UNL     1      -1.174  -1.858  -0.236  1.00  0.00    +0.000 C 
ATOM     13  C   UNL     1       0.261  -2.101   0.235  1.00  0.00    +0.000 C 
ATOM     14  C   UNL     1       1.233  -0.959  -0.129  1.00  0.00    +0.000 C 
ATOM     15  O   UNL     1       2.449  -1.252   0.599  1.00  0.00    +0.000 OA
ATOM     16  C   UNL     1       1.530  -1.040  -1.637  1.00  0.00    +0.000 C 
ATOM     17  C   UNL     1      -4.085  -1.167   1.030  1.00  0.00    +0.000 C 
ATOM     18  C   UNL     1      -3.717  -0.808  -1.396  1.00  0.00    +0.000 C 
ATOM     19  C   UNL     1      -0.887   1.081  -1.557  1.00  0.00    +0.000 C 
ENDROOT
BRANCH   2  20
ATOM     20  C   UNL     1       4.322  -0.333  -0.606  1.00  0.00    +0.000 C 
ATOM     21  C   UNL     1       4.744   0.667  -1.395  1.00  0.00    +0.000 C 
ENDBRANCH   2  20
TORSDOF 1
