REMARK  Name = /srv/my_project/app/compsite/backup/Dave/CORINA_stuff/newPDBs/SANC00628.pdb
AUTHORGENERATED BY OPEN BABEL 2.3.2
REMARK  2 active torsions:
REMARK  status: ('A' for Active; 'I' for Inactive)
REMARK    1  A    between atoms: C_1  and  O_2
REMARK    2  A    between atoms: O_2  and  C_3
REMARK                            x       y       z     vdW  Elec       q    Type
REMARK                         _______ _______ _______ _____ _____    ______ ____
ROOT
ATOM      1  C   UNL     1      -0.553   0.452   0.446  1.00  0.00    +0.000 A 
ATOM      2  C   UNL     1       0.807   0.253   0.128  1.00  0.00    +0.000 A 
ATOM      3  C   UNL     1       1.761   1.294   0.172  1.00  0.00    +0.000 A 
ATOM      4  C   UNL     1       3.092   1.061  -0.162  1.00  0.00    +0.000 A 
ATOM      5  C   UNL     1       3.486  -0.214  -0.542  1.00  0.00    +0.000 A 
ATOM      6  C   UNL     1       2.546  -1.248  -0.582  1.00  0.00    +0.000 A 
ATOM      7  C   UNL     1       1.213  -1.049  -0.252  1.00  0.00    +0.000 A 
ATOM      8  N   UNL     1       0.399  -2.110  -0.315  1.00  0.00    +0.000 NA
ATOM      9  C   UNL     1      -0.871  -1.867   0.041  1.00  0.00    +0.000 A 
ATOM     10  C   UNL     1      -1.417  -0.652   0.431  1.00  0.00    +0.000 A 
ATOM     11  C   UNL     1      -2.783  -0.907   0.725  1.00  0.00    +0.000 A 
ATOM     12  C   UNL     1      -2.983  -2.246   0.484  1.00  0.00    +0.000 A 
ATOM     13  O   UNL     1      -1.832  -2.834   0.066  1.00  0.00    +0.000 OA
ENDROOT
BRANCH   1  15
ATOM     14  C   UNL     1      -1.661   2.346  -0.242  1.00  0.00    +0.000 C 
ATOM     15  O   UNL     1      -0.995   1.698   0.843  1.00  0.00    +0.000 OA
ENDBRANCH   1  15
TORSDOF 1
