REMARK  Name = SANCDB_01028_minRM1.pdb
AUTHORGENERATED BY OPEN BABEL 2.3.2
REMARK  4 active torsions:
REMARK  status: ('A' for Active; 'I' for Inactive)
REMARK    1  A    between atoms: C_1  and  C_2
REMARK    2  A    between atoms: C_4  and  O_14
REMARK    3  A    between atoms: C_9  and  C_12
REMARK    4  A    between atoms: C_9  and  C_13
REMARK                            x       y       z     vdW  Elec       q    Type
REMARK                         _______ _______ _______ _____ _____    ______ ____
ROOT
ATOM      1  C   UNL     1       1.546  -2.493   0.250  1.00  0.00    +0.000 C 
ATOM      2  C   UNL     1       1.651  -0.995   0.251  1.00  0.00    +0.000 A 
ATOM      3  C   UNL     1       2.907  -0.379   0.329  1.00  0.00    +0.000 A 
ATOM      4  C   UNL     1       3.005   1.007   0.330  1.00  0.00    +0.000 A 
ATOM      5  C   UNL     1       1.869   1.805   0.254  1.00  0.00    +0.000 A 
ATOM      6  C   UNL     1       0.607   1.204   0.176  1.00  0.00    +0.000 A 
ATOM      7  C   UNL     1       0.499  -0.192   0.174  1.00  0.00    +0.000 A 
ATOM      8  O   UNL     1      -0.699  -0.850   0.100  1.00  0.00    +0.000 OA
ATOM      9  C   UNL     1      -1.923  -0.094   0.020  1.00  0.00    +0.000 C 
ATOM     10  C   UNL     1      -1.772   1.409   0.024  1.00  0.00    +0.000 C 
ATOM     11  C   UNL     1      -0.590   2.027   0.096  1.00  0.00    +0.000 C 
ATOM     12  C   UNL     1      -2.613  -0.529  -1.278  1.00  0.00    +0.000 C 
ATOM     13  C   UNL     1      -2.772  -0.519   1.224  1.00  0.00    +0.000 C 
ENDROOT
BRANCH   4  14
ATOM     14  O   UNL     1       4.253   1.553   0.408  1.00  0.00    +0.000 OA
ATOM     15  H   UNL     1       4.172   2.521   0.399  1.00  0.00    +0.000 HD
ENDBRANCH   4  14
TORSDOF 1
