REMARK  Name = /srv/my_project/app/compsite/backup/Dave/CORINA_stuff/newPDBs/SANC00612.pdb
AUTHORGENERATED BY OPEN BABEL 2.3.2
REMARK  4 active torsions:
REMARK  status: ('A' for Active; 'I' for Inactive)
REMARK    1  A    between atoms: C_4  and  C_5
REMARK    2  A    between atoms: C_8  and  O_9
REMARK    3  A    between atoms: C_16  and  O_17
REMARK    4  A    between atoms: C_19  and  O_20
REMARK                            x       y       z     vdW  Elec       q    Type
REMARK                         _______ _______ _______ _____ _____    ______ ____
ROOT
ATOM      1  O   UNL     1      -1.300  -2.608  -0.171  1.00  0.00    +0.000 OA
ATOM      2  C   UNL     1      -1.238  -1.384  -0.123  1.00  0.00    +0.000 C 
ATOM      3  C   UNL     1       0.036  -0.625  -0.190  1.00  0.00    +0.000 C 
ATOM      4  C   UNL     1       1.178  -1.291   0.056  1.00  0.00    +0.000 C 
ATOM      5  C   UNL     1      -0.123   0.817  -0.553  1.00  0.00    +0.000 C 
ATOM      6  O   UNL     1      -1.151   1.460   0.213  1.00  0.00    +0.000 OA
ATOM      7  C   UNL     1      -2.353   0.805   0.165  1.00  0.00    +0.000 A 
ATOM      8  C   UNL     1      -3.495   1.585   0.352  1.00  0.00    +0.000 A 
ATOM      9  C   UNL     1      -4.748   0.977   0.329  1.00  0.00    +0.000 A 
ATOM     10  C   UNL     1      -4.874  -0.396   0.138  1.00  0.00    +0.000 A 
ATOM     11  C   UNL     1      -3.731  -1.175  -0.021  1.00  0.00    +0.000 A 
ATOM     12  C   UNL     1      -2.465  -0.577  -0.009  1.00  0.00    +0.000 A 
ENDROOT
BRANCH   4  13
ATOM     13  C   UNL     1       2.503  -0.676   0.005  1.00  0.00    +0.000 A 
ATOM     14  C   UNL     1       3.087  -0.173   1.173  1.00  0.00    +0.000 A 
ATOM     15  C   UNL     1       4.346   0.432   1.126  1.00  0.00    +0.000 A 
ATOM     16  C   UNL     1       5.011   0.531  -0.092  1.00  0.00    +0.000 A 
ATOM     17  C   UNL     1       4.442   0.034  -1.259  1.00  0.00    +0.000 A 
ATOM     18  C   UNL     1       3.185  -0.571  -1.212  1.00  0.00    +0.000 A 
BRANCH  16  19
ATOM     19  O   UNL     1       6.240   1.114  -0.185  1.00  0.00    +0.000 OA
ATOM     20  H   UNL     1       6.522   1.389   0.703  1.00  0.00    +0.000 HD
ENDBRANCH  16  19
ENDBRANCH   4  13
BRANCH   9  21
ATOM     21  O   UNL     1      -5.891   1.702   0.495  1.00  0.00    +0.000 OA
ATOM     22  H   UNL     1      -5.659   2.635   0.634  1.00  0.00    +0.000 HD
ENDBRANCH   9  21
BRANCH  11  23
ATOM     23  O   UNL     1      -3.918  -2.522  -0.177  1.00  0.00    +0.000 OA
ATOM     24  H   UNL     1      -3.035  -2.953  -0.213  1.00  0.00    +0.000 HD
ENDBRANCH  11  23
TORSDOF 4
