REMARK  Name = SANCDB_01010_minRM1.pdb
AUTHORGENERATED BY OPEN BABEL 2.3.2
REMARK  6 active torsions:
REMARK  status: ('A' for Active; 'I' for Inactive)
REMARK    1  A    between atoms: C_1  and  C_2
REMARK    2  A    between atoms: C_3  and  C_10
REMARK    3  A    between atoms: C_4  and  C_8
REMARK    4  A    between atoms: C_4  and  C_9
REMARK    5  A    between atoms: C_11  and  C_12
REMARK    6  A    between atoms: C_12  and  C_14
REMARK                            x       y       z     vdW  Elec       q    Type
REMARK                         _______ _______ _______ _____ _____    ______ ____
ROOT
ATOM      1  C   UNL     1       0.563   2.216   1.425  1.00  0.00    +0.000 C 
ATOM      2  C   UNL     1      -0.458   1.294   0.801  1.00  0.00    +0.000 C 
ATOM      3  C   UNL     1      -0.213   0.021   0.402  1.00  0.00    +0.000 C 
ATOM      4  C   UNL     1      -1.320  -0.912  -0.138  1.00  0.00    +0.000 C 
ATOM      5  C   UNL     1      -2.732  -0.328   0.137  1.00  0.00    +0.000 C 
ATOM      6  C   UNL     1      -2.813   1.158  -0.173  1.00  0.00    +0.000 C 
ATOM      7  C   UNL     1      -1.826   1.933   0.689  1.00  0.00    +0.000 C 
ATOM      8  C   UNL     1      -1.287  -2.309   0.524  1.00  0.00    +0.000 C 
ATOM      9  C   UNL     1      -1.133  -1.094  -1.661  1.00  0.00    +0.000 C 
ENDROOT
BRANCH   3  10
ATOM     10  C   UNL     1       1.127  -0.553   0.454  1.00  0.00    +0.000 C 
ATOM     11  C   UNL     1       2.137  -0.136  -0.324  1.00  0.00    +0.000 C 
BRANCH  11  12
ATOM     12  C   UNL     1       3.474  -0.783  -0.236  1.00  0.00    +0.000 C 
ATOM     13  O   UNL     1       3.680  -1.741   0.506  1.00  0.00    +0.000 OA
ATOM     14  C   UNL     1       4.559  -0.230  -1.121  1.00  0.00    +0.000 C 
ENDBRANCH  11  12
ENDBRANCH   3  10
TORSDOF 2
