REMARK  Name = /srv/my_project/app/compsite/backup/Dave/CORINA_stuff/newPDBs/SANC00369.pdb
AUTHORGENERATED BY OPEN BABEL 2.3.2
REMARK  12 active torsions:
REMARK  status: ('A' for Active; 'I' for Inactive)
REMARK    1  A    between atoms: C_1  and  C_2
REMARK    2  A    between atoms: C_2  and  C_3
REMARK    3  A    between atoms: C_2  and  C_4
REMARK    4  A    between atoms: C_10  and  C_11
REMARK    5  A    between atoms: C_10  and  C_12
REMARK    6  A    between atoms: C_14  and  O_16
REMARK    7  A    between atoms: O_16  and  C_17
REMARK    8  A    between atoms: C_17  and  C_19
REMARK    9  A    between atoms: C_22  and  O_23
REMARK   10  A    between atoms: C_24  and  O_25
REMARK   11  A    between atoms: C_28  and  C_29
REMARK   12  A    between atoms: C_31  and  O_32
REMARK                            x       y       z     vdW  Elec       q    Type
REMARK                         _______ _______ _______ _____ _____    ______ ____
ROOT
ATOM      1  C   UNL     1      -4.544   0.024   1.850  1.00  0.00    +0.000 C 
ATOM      2  C   UNL     1      -4.164  -1.050   1.138  1.00  0.00    +0.000 C 
ATOM      3  C   UNL     1      -3.011  -1.033   0.248  1.00  0.00    +0.000 C 
ATOM      4  C   UNL     1      -2.673  -2.176  -0.370  1.00  0.00    +0.000 C 
ATOM      5  C   UNL     1      -1.505  -2.303  -1.193  1.00  0.00    +0.000 C 
ATOM      6  C   UNL     1      -0.734  -1.251  -1.525  1.00  0.00    +0.000 C 
ATOM      7  C   UNL     1       0.612  -1.475  -2.250  1.00  0.00    +0.000 C 
ATOM      8  C   UNL     1       1.564  -2.284  -1.336  1.00  0.00    +0.000 C 
ATOM      9  C   UNL     1       0.404  -2.278  -3.557  1.00  0.00    +0.000 C 
ATOM     10  C   UNL     1       1.316  -0.154  -2.639  1.00  0.00    +0.000 C 
ATOM     11  C   UNL     1       1.329   0.914  -1.543  1.00  0.00    +0.000 C 
ATOM     12  C   UNL     1       0.194   0.793  -0.521  1.00  0.00    +0.000 C 
ATOM     13  C   UNL     1      -1.117   0.181  -1.071  1.00  0.00    +0.000 C 
ATOM     14  C   UNL     1      -1.686   0.966  -2.277  1.00  0.00    +0.000 C 
ATOM     15  C   UNL     1      -2.241   0.198   0.015  1.00  0.00    +0.000 C 
ATOM     16  C   UNL     1      -2.623   1.303   0.693  1.00  0.00    +0.000 C 
ATOM     17  C   UNL     1      -3.760   1.280   1.670  1.00  0.00    +0.000 C 
ATOM     18  O   UNL     1      -4.022   2.318   2.277  1.00  0.00    +0.000 OA
ENDROOT
BRANCH   1  20
ATOM     19  C   UNL     1      -6.835  -0.926   2.512  1.00  0.00    +0.000 C 
ATOM     20  C   UNL     1      -5.725   0.093   2.800  1.00  0.00    +0.000 C 
ATOM     21  C   UNL     1      -5.253  -0.056   4.250  1.00  0.00    +0.000 C 
ENDBRANCH   1  20
BRANCH  16  22
ATOM     22  O   UNL     1      -2.037   2.544   0.506  1.00  0.00    +0.000 OA
ATOM     23  H   UNL     1      -2.518   3.142   1.119  1.00  0.00    +0.000 HD
ENDBRANCH  16  22
BRANCH  11  24
ATOM     24  O   UNL     1       2.567   0.850  -0.798  1.00  0.00    +0.000 OA
BRANCH  24  25
ATOM     25  C   UNL     1       3.643   1.454  -1.360  1.00  0.00    +0.000 C 
ATOM     26  O   UNL     1       3.661   2.027  -2.437  1.00  0.00    +0.000 OA
BRANCH  25  27
ATOM     27  C   UNL     1       4.833   1.311  -0.477  1.00  0.00    +0.000 A 
ATOM     28  C   UNL     1       4.769   0.672   0.775  1.00  0.00    +0.000 A 
ATOM     29  C   UNL     1       5.912   0.558   1.575  1.00  0.00    +0.000 A 
ATOM     30  C   UNL     1       7.113   1.085   1.117  1.00  0.00    +0.000 A 
ATOM     31  C   UNL     1       7.178   1.718  -0.122  1.00  0.00    +0.000 A 
ATOM     32  C   UNL     1       6.052   1.837  -0.924  1.00  0.00    +0.000 A 
BRANCH  30  33
ATOM     33  O   UNL     1       8.263   1.006   1.851  1.00  0.00    +0.000 OA
ATOM     34  H   UNL     1       8.063   0.550   2.687  1.00  0.00    +0.000 HD
ENDBRANCH  30  33
BRANCH  31  35
ATOM     35  O   UNL     1       8.365   2.231  -0.562  1.00  0.00    +0.000 OA
ATOM     36  H   UNL     1       9.001   2.035   0.155  1.00  0.00    +0.000 HD
ENDBRANCH  31  35
ENDBRANCH  25  27
ENDBRANCH  24  25
ENDBRANCH  11  24
TORSDOF 7
