REMARK  Name = /srv/my_project/app/compsite/backup/Dave/CORINA_stuff/newPDBs/SANC00459.pdb
AUTHORGENERATED BY OPEN BABEL 2.3.2
REMARK  16 active torsions:
REMARK  status: ('A' for Active; 'I' for Inactive)
REMARK    1  A    between atoms: C_2  and  O_3
REMARK    2  A    between atoms: O_3  and  C_4
REMARK    3  A    between atoms: C_8  and  C_9
REMARK    4  A    between atoms: C_18  and  O_20
REMARK    5  A    between atoms: O_20  and  C_21
REMARK    6  A    between atoms: C_21  and  C_23
REMARK    7  A    between atoms: C_23  and  C_24
REMARK    8  A    between atoms: C_25  and  C_26
REMARK    9  A    between atoms: C_27  and  C_28
REMARK   10  A    between atoms: C_29  and  C_31
REMARK   11  A    between atoms: C_31  and  C_32
REMARK   12  A    between atoms: C_36  and  O_37
REMARK   13  A    between atoms: C_40  and  O_42
REMARK   14  A    between atoms: O_42  and  C_43
REMARK   15  A    between atoms: C_44  and  O_46
REMARK   16  A    between atoms: C_47  and  C_49
REMARK                            x       y       z     vdW  Elec       q    Type
REMARK                         _______ _______ _______ _____ _____    ______ ____
ROOT
ATOM      1  C   UNL     1      -2.860  -1.089   0.063  1.00  0.00    +0.000 C 
ATOM      2  C   UNL     1      -1.590  -1.889   0.402  1.00  0.00    +0.000 C 
ATOM      3  C   UNL     1      -0.405  -1.446  -0.462  1.00  0.00    +0.000 C 
ATOM      4  C   UNL     1       0.003   0.043  -0.213  1.00  0.00    +0.000 C 
ATOM      5  C   UNL     1       0.445   0.656  -1.564  1.00  0.00    +0.000 C 
ATOM      6  C   UNL     1      -1.224   0.825   0.270  1.00  0.00    +0.000 C 
ATOM      7  C   UNL     1      -1.160   1.789   1.202  1.00  0.00    +0.000 C 
ATOM      8  C   UNL     1       0.093   2.211   1.904  1.00  0.00    +0.000 C 
ATOM      9  C   UNL     1       1.390   1.579   1.349  1.00  0.00    +0.000 C 
ATOM     10  C   UNL     1       1.150   0.126   0.871  1.00  0.00    +0.000 C 
ATOM     11  C   UNL     1       2.461  -0.589   0.459  1.00  0.00    +0.000 C 
ATOM     12  C   UNL     1       3.730   0.275   0.510  1.00  0.00    +0.000 C 
ATOM     13  C   UNL     1       3.914   1.027   1.861  1.00  0.00    +0.000 C 
ATOM     14  C   UNL     1       5.049   2.074   1.699  1.00  0.00    +0.000 C 
ATOM     15  C   UNL     1       4.247   0.012   3.014  1.00  0.00    +0.000 C 
ATOM     16  C   UNL     1       3.635   0.657   4.251  1.00  0.00    +0.000 C 
ATOM     17  C   UNL     1       2.280   1.112   3.739  1.00  0.00    +0.000 C 
ATOM     18  C   UNL     1       2.572   1.715   2.347  1.00  0.00    +0.000 C 
ATOM     19  C   UNL     1      -2.549   0.378  -0.299  1.00  0.00    +0.000 C 
ENDROOT
BRANCH  15  20
ATOM     20  C   UNL     1       5.715  -0.389   3.163  1.00  0.00    +0.000 C 
ATOM     21  C   UNL     1       6.256  -0.642   4.546  1.00  0.00    +0.000 C 
ATOM     22  O   UNL     1       6.425  -0.588   2.176  1.00  0.00    +0.000 OA
ENDBRANCH  15  20
BRANCH  18  23
ATOM     23  O   UNL     1       2.752   3.128   2.550  1.00  0.00    +0.000 OA
ATOM     24  H   UNL     1       3.363   3.273   3.291  1.00  0.00    +0.000 HD
ENDBRANCH  18  23
BRANCH   1  25
ATOM     25  O   UNL     1      -3.485  -1.753  -1.047  1.00  0.00    +0.000 OA
BRANCH  25  26
ATOM     26  C   UNL     1      -4.851  -1.386  -1.242  1.00  0.00    +0.000 C 
ATOM     27  C   UNL     1      -5.303  -1.981  -2.579  1.00  0.00    +0.000 C 
ATOM     28  C   UNL     1      -6.793  -2.263  -2.570  1.00  0.00    +0.000 C 
ATOM     29  C   UNL     1      -7.102  -3.282  -1.454  1.00  0.00    +0.000 C 
ATOM     30  C   UNL     1      -6.242  -3.071  -0.188  1.00  0.00    +0.000 C 
ATOM     31  C   UNL     1      -5.173  -4.149  -0.011  1.00  0.00    +0.000 C 
ATOM     32  O   UNL     1      -5.666  -1.765  -0.135  1.00  0.00    +0.000 OA
BRANCH  28  33
ATOM     33  O   UNL     1      -7.556  -1.065  -2.322  1.00  0.00    +0.000 OA
ATOM     34  C   UNL     1      -7.703  -0.244  -3.474  1.00  0.00    +0.000 C 
ENDBRANCH  28  33
BRANCH  29  35
ATOM     35  O   UNL     1      -8.496  -3.176  -1.122  1.00  0.00    +0.000 OA
ATOM     36  H   UNL     1      -8.675  -2.212  -1.123  1.00  0.00    +0.000 HD
ENDBRANCH  29  35
ENDBRANCH  25  26
ENDBRANCH   1  25
BRANCH  12  37
ATOM     37  O   UNL     1       3.675   1.248  -0.560  1.00  0.00    +0.000 OA
BRANCH  37  38
ATOM     38  C   UNL     1       4.086   0.843  -1.788  1.00  0.00    +0.000 C 
ATOM     39  O   UNL     1       4.455  -0.285  -2.077  1.00  0.00    +0.000 OA
BRANCH  38  40
ATOM     40  C   UNL     1       3.992   1.982  -2.756  1.00  0.00    +0.000 C 
ATOM     41  C   UNL     1       3.736   3.350  -2.196  1.00  0.00    +0.000 C 
ATOM     42  C   UNL     1       4.161   1.678  -4.059  1.00  0.00    +0.000 C 
ATOM     43  C   UNL     1       4.108   2.601  -5.233  1.00  0.00    +0.000 C 
ENDBRANCH  38  40
ENDBRANCH  37  38
ENDBRANCH  12  37
TORSDOF 9
