REMARK  Name = SANCDB_00996_minRM1.pdb
AUTHORGENERATED BY OPEN BABEL 2.3.2
REMARK  13 active torsions:
REMARK  status: ('A' for Active; 'I' for Inactive)
REMARK    1  A    between atoms: C_2  and  O_42
REMARK    2  A    between atoms: C_3  and  C_34
REMARK    3  A    between atoms: C_7  and  O_33
REMARK    4  A    between atoms: C_9  and  O_32
REMARK    5  A    between atoms: C_10  and  C_11
REMARK    6  A    between atoms: C_12  and  O_31
REMARK    7  A    between atoms: C_13  and  C_23
REMARK    8  A    between atoms: C_17  and  O_22
REMARK    9  A    between atoms: C_19  and  O_21
REMARK   10  A    between atoms: C_25  and  O_30
REMARK   11  A    between atoms: C_26  and  O_29
REMARK   12  A    between atoms: C_36  and  O_41
REMARK   13  A    between atoms: C_37  and  O_40
REMARK                            x       y       z     vdW  Elec       q    Type
REMARK                         _______ _______ _______ _____ _____    ______ ____
ROOT
ATOM      1  C   UNL     1       3.915   2.088  -0.130  1.00  0.00    +0.000 C 
ATOM      2  C   UNL     1       3.674   1.479  -1.509  1.00  0.00    +0.000 C 
ATOM      3  C   UNL     1       2.655   0.331  -1.426  1.00  0.00    +0.000 C 
ATOM      4  O   UNL     1       1.409   0.854  -0.910  1.00  0.00    +0.000 OA
ATOM      5  C   UNL     1       1.467   1.583   0.256  1.00  0.00    +0.000 A 
ATOM      6  C   UNL     1       2.650   2.216   0.677  1.00  0.00    +0.000 A 
ATOM      7  C   UNL     1       2.616   2.959   1.863  1.00  0.00    +0.000 A 
ATOM      8  C   UNL     1       1.437   3.117   2.584  1.00  0.00    +0.000 A 
ATOM      9  C   UNL     1       0.268   2.511   2.135  1.00  0.00    +0.000 A 
ATOM     10  C   UNL     1       0.256   1.719   0.979  1.00  0.00    +0.000 A 
ENDROOT
BRANCH  10  11
ATOM     11  C   UNL     1      -1.028   1.031   0.487  1.00  0.00    +0.000 C 
ATOM     12  C   UNL     1      -1.971   2.094  -0.126  1.00  0.00    +0.000 C 
ATOM     13  C   UNL     1      -3.349   1.465  -0.422  1.00  0.00    +0.000 C 
ATOM     14  O   UNL     1      -3.952   1.078   0.833  1.00  0.00    +0.000 OA
ATOM     15  C   UNL     1      -3.170   0.268   1.619  1.00  0.00    +0.000 A 
ATOM     16  C   UNL     1      -3.876  -0.490   2.559  1.00  0.00    +0.000 A 
ATOM     17  C   UNL     1      -3.194  -1.396   3.360  1.00  0.00    +0.000 A 
ATOM     18  C   UNL     1      -1.823  -1.556   3.235  1.00  0.00    +0.000 A 
ATOM     19  C   UNL     1      -1.125  -0.776   2.313  1.00  0.00    +0.000 A 
ATOM     20  C   UNL     1      -1.772   0.175   1.508  1.00  0.00    +0.000 A 
BRANCH  13  21
ATOM     21  C   UNL     1      -3.481   0.337  -1.454  1.00  0.00    +0.000 A 
ATOM     22  C   UNL     1      -2.535   0.117  -2.467  1.00  0.00    +0.000 A 
ATOM     23  C   UNL     1      -2.719  -0.910  -3.386  1.00  0.00    +0.000 A 
ATOM     24  C   UNL     1      -3.844  -1.725  -3.336  1.00  0.00    +0.000 A 
ATOM     25  C   UNL     1      -4.811  -1.516  -2.365  1.00  0.00    +0.000 A 
ATOM     26  C   UNL     1      -4.631  -0.485  -1.437  1.00  0.00    +0.000 A 
BRANCH  24  27
ATOM     27  O   UNL     1      -3.958  -2.716  -4.271  1.00  0.00    +0.000 OA
ATOM     28  H   UNL     1      -4.781  -3.202  -4.091  1.00  0.00    +0.000 HD
ENDBRANCH  24  27
BRANCH  23  29
ATOM     29  O   UNL     1      -1.776  -1.115  -4.354  1.00  0.00    +0.000 OA
ATOM     30  H   UNL     1      -2.118  -1.874  -4.866  1.00  0.00    +0.000 HD
ENDBRANCH  23  29
ENDBRANCH  13  21
BRANCH  19  31
ATOM     31  O   UNL     1       0.223  -0.949   2.206  1.00  0.00    +0.000 OA
ATOM     32  H   UNL     1       0.432  -1.894   2.335  1.00  0.00    +0.000 HD
ENDBRANCH  19  31
BRANCH  17  33
ATOM     33  O   UNL     1      -3.846  -2.162   4.282  1.00  0.00    +0.000 OA
ATOM     34  H   UNL     1      -4.787  -1.924   4.268  1.00  0.00    +0.000 HD
ENDBRANCH  17  33
BRANCH  12  35
ATOM     35  O   UNL     1      -1.422   2.737  -1.286  1.00  0.00    +0.000 OA
ATOM     36  H   UNL     1      -0.593   3.159  -0.999  1.00  0.00    +0.000 HD
ENDBRANCH  12  35
ENDBRANCH  10  11
BRANCH   3  37
ATOM     37  C   UNL     1       3.094  -0.946  -0.710  1.00  0.00    +0.000 A 
ATOM     38  C   UNL     1       2.134  -1.757  -0.083  1.00  0.00    +0.000 A 
ATOM     39  C   UNL     1       2.515  -2.896   0.614  1.00  0.00    +0.000 A 
ATOM     40  C   UNL     1       3.844  -3.296   0.644  1.00  0.00    +0.000 A 
ATOM     41  C   UNL     1       4.810  -2.551  -0.018  1.00  0.00    +0.000 A 
ATOM     42  C   UNL     1       4.433  -1.382  -0.694  1.00  0.00    +0.000 A 
BRANCH  40  43
ATOM     43  O   UNL     1       4.152  -4.433   1.338  1.00  0.00    +0.000 OA
ATOM     44  H   UNL     1       5.110  -4.582   1.264  1.00  0.00    +0.000 HD
ENDBRANCH  40  43
BRANCH  39  45
ATOM     45  O   UNL     1       1.568  -3.614   1.291  1.00  0.00    +0.000 OA
ATOM     46  H   UNL     1       2.060  -4.386   1.639  1.00  0.00    +0.000 HD
ENDBRANCH  39  45
ENDBRANCH   3  37
BRANCH   9  47
ATOM     47  O   UNL     1      -0.893   2.712   2.828  1.00  0.00    +0.000 OA
ATOM     48  H   UNL     1      -0.671   3.027   3.719  1.00  0.00    +0.000 HD
ENDBRANCH   9  47
BRANCH   7  49
ATOM     49  O   UNL     1       3.713   3.590   2.382  1.00  0.00    +0.000 OA
ATOM     50  H   UNL     1       4.506   3.335   1.888  1.00  0.00    +0.000 HD
ENDBRANCH   7  49
BRANCH   2  51
ATOM     51  O   UNL     1       3.203   2.508  -2.399  1.00  0.00    +0.000 OA
ATOM     52  H   UNL     1       2.255   2.638  -2.206  1.00  0.00    +0.000 HD
ENDBRANCH   2  51
TORSDOF 13
