REMARK  Name = /srv/my_project/app/compsite/backup/Dave/CORINA_stuff/newPDBs/SANC00637.pdb
AUTHORGENERATED BY OPEN BABEL 2.3.2
REMARK  4 active torsions:
REMARK  status: ('A' for Active; 'I' for Inactive)
REMARK    1  A    between atoms: C_1  and  N_2
REMARK    2  A    between atoms: C_8  and  O_23
REMARK    3  A    between atoms: C_19  and  O_20
REMARK    4  A    between atoms: O_20  and  C_21
REMARK                            x       y       z     vdW  Elec       q    Type
REMARK                         _______ _______ _______ _____ _____    ______ ____
ROOT
ATOM      1  C   UNL     1       4.137  -1.442   0.496  1.00  0.00    +0.000 C 
ATOM      2  N   UNL     1       2.780  -0.893   0.594  1.00  0.00    +0.000 NA
ATOM      3  C   UNL     1       1.839  -1.976   0.933  1.00  0.00    +0.000 C 
ATOM      4  C   UNL     1       0.420  -1.546   1.354  1.00  0.00    +0.000 C 
ATOM      5  C   UNL     1      -0.458  -0.898   0.258  1.00  0.00    +0.000 C 
ATOM      6  C   UNL     1      -0.563  -1.813  -0.954  1.00  0.00    +0.000 C 
ATOM      7  C   UNL     1      -1.669  -2.499  -1.280  1.00  0.00    +0.000 C 
ATOM      8  C   UNL     1      -2.954  -2.337  -0.541  1.00  0.00    +0.000 C 
ATOM      9  C   UNL     1      -3.075  -0.922  -0.004  1.00  0.00    +0.000 C 
ATOM     10  C   UNL     1      -1.864  -0.500   0.836  1.00  0.00    +0.000 C 
ATOM     11  O   UNL     1      -1.965   0.942   0.948  1.00  0.00    +0.000 OA
ATOM     12  C   UNL     1      -0.842   1.441   0.340  1.00  0.00    +0.000 A 
ATOM     13  C   UNL     1       0.074   0.467  -0.038  1.00  0.00    +0.000 A 
ATOM     14  C   UNL     1       1.347   0.829  -0.467  1.00  0.00    +0.000 A 
ATOM     15  C   UNL     1       1.610   2.200  -0.634  1.00  0.00    +0.000 A 
ATOM     16  C   UNL     1       0.644   3.174  -0.326  1.00  0.00    +0.000 A 
ATOM     17  C   UNL     1      -0.595   2.801   0.194  1.00  0.00    +0.000 A 
ATOM     18  C   UNL     1       2.442  -0.192  -0.658  1.00  0.00    +0.000 C 
ENDROOT
BRANCH  17  19
ATOM     19  O   UNL     1      -1.590   3.651   0.584  1.00  0.00    +0.000 OA
ATOM     20  C   UNL     1      -1.325   5.043   0.490  1.00  0.00    +0.000 C 
ENDBRANCH  17  19
BRANCH   8  21
ATOM     21  O   UNL     1      -4.021  -2.592  -1.445  1.00  0.00    +0.000 OA
ATOM     22  H   UNL     1      -3.982  -1.913  -2.140  1.00  0.00    +0.000 HD
ENDBRANCH   8  21
TORSDOF 2
