REMARK  Name = SANCDB_00839_minRM1.pdb
AUTHORGENERATED BY OPEN BABEL 2.3.2
REMARK  24 active torsions:
REMARK  status: ('A' for Active; 'I' for Inactive)
REMARK    1  A    between atoms: C_4  and  O_32
REMARK    2  A    between atoms: C_5  and  O_20
REMARK    3  A    between atoms: C_6  and  O_8
REMARK    4  A    between atoms: O_8  and  C_9
REMARK    5  A    between atoms: C_9  and  C_11
REMARK    6  A    between atoms: C_13  and  O_19
REMARK    7  A    between atoms: C_14  and  O_18
REMARK    8  A    between atoms: C_15  and  O_17
REMARK    9  A    between atoms: O_20  and  C_21
REMARK   10  A    between atoms: C_21  and  C_23
REMARK   11  A    between atoms: C_25  and  O_31
REMARK   12  A    between atoms: C_26  and  O_30
REMARK   13  A    between atoms: C_27  and  O_29
REMARK   14  A    between atoms: O_32  and  C_33
REMARK   15  A    between atoms: C_33  and  C_35
REMARK   16  A    between atoms: C_37  and  O_43
REMARK   17  A    between atoms: C_38  and  O_42
REMARK   18  A    between atoms: C_39  and  O_41
REMARK   19  A    between atoms: C_49  and  O_67
REMARK   20  A    between atoms: C_50  and  O_66
REMARK   21  A    between atoms: C_51  and  O_65
REMARK   22  A    between atoms: C_54  and  O_64
REMARK   23  A    between atoms: C_55  and  O_63
REMARK   24  A    between atoms: C_56  and  O_62
REMARK                            x       y       z     vdW  Elec       q    Type
REMARK                         _______ _______ _______ _____ _____    ______ ____
ROOT
ATOM      1  C   UNL     1       1.560  -2.297  -2.925  1.00  0.00    +0.000 C 
ATOM      2  C   UNL     1       0.491  -1.737  -1.953  1.00  0.00    +0.000 C 
ATOM      3  C   UNL     1       0.613  -0.211  -1.780  1.00  0.00    +0.000 C 
ATOM      4  C   UNL     1      -0.741   0.527  -1.748  1.00  0.00    +0.000 C 
ATOM      5  C   UNL     1      -1.891  -0.262  -1.106  1.00  0.00    +0.000 C 
ATOM      6  C   UNL     1      -1.843  -1.772  -1.464  1.00  0.00    +0.000 C 
ATOM      7  O   UNL     1      -0.813  -2.088  -2.421  1.00  0.00    +0.000 OA
ATOM      8  O   UNL     1       1.555   0.103  -0.712  1.00  0.00    +0.000 OA
ATOM      9  C   UNL     1       1.256  -0.265   0.547  1.00  0.00    +0.000 C 
ATOM     10  O   UNL     1       0.120  -0.423   0.962  1.00  0.00    +0.000 OA
ATOM     11  C   UNL     1       2.452  -0.655   1.355  1.00  0.00    +0.000 A 
ATOM     12  C   UNL     1       2.112  -1.350   2.543  1.00  0.00    +0.000 A 
ATOM     13  C   UNL     1       3.089  -1.889   3.362  1.00  0.00    +0.000 A 
ATOM     14  C   UNL     1       4.419  -1.690   3.057  1.00  0.00    +0.000 A 
ATOM     15  C   UNL     1       4.775  -0.989   1.908  1.00  0.00    +0.000 A 
ATOM     16  C   UNL     1       3.816  -0.474   1.005  1.00  0.00    +0.000 A 
ATOM     17  C   UNL     1       4.307   0.200  -0.223  1.00  0.00    +0.000 A 
ATOM     18  C   UNL     1       4.878   1.488  -0.142  1.00  0.00    +0.000 A 
ATOM     19  C   UNL     1       5.322   2.163  -1.277  1.00  0.00    +0.000 A 
ATOM     20  C   UNL     1       5.269   1.557  -2.518  1.00  0.00    +0.000 A 
ATOM     21  C   UNL     1       4.744   0.281  -2.649  1.00  0.00    +0.000 A 
ATOM     22  C   UNL     1       4.249  -0.397  -1.515  1.00  0.00    +0.000 A 
ATOM     23  C   UNL     1       3.528  -1.691  -1.725  1.00  0.00    +0.000 C 
ATOM     24  O   UNL     1       3.434  -2.602  -0.922  1.00  0.00    +0.000 OA
ATOM     25  O   UNL     1       2.798  -1.566  -2.864  1.00  0.00    +0.000 OA
ENDROOT
BRANCH  13  26
ATOM     26  O   UNL     1       2.768  -2.630   4.462  1.00  0.00    +0.000 OA
ATOM     27  H   UNL     1       1.832  -2.912   4.366  1.00  0.00    +0.000 HD
ENDBRANCH  13  26
BRANCH  14  28
ATOM     28  O   UNL     1       5.404  -2.179   3.870  1.00  0.00    +0.000 OA
ATOM     29  H   UNL     1       4.919  -2.645   4.584  1.00  0.00    +0.000 HD
ENDBRANCH  14  28
BRANCH  15  30
ATOM     30  O   UNL     1       6.115  -0.788   1.677  1.00  0.00    +0.000 OA
ATOM     31  H   UNL     1       6.571  -1.322   2.363  1.00  0.00    +0.000 HD
ENDBRANCH  15  30
BRANCH  18  32
ATOM     32  O   UNL     1       5.043   2.167   1.043  1.00  0.00    +0.000 OA
ATOM     33  H   UNL     1       5.156   1.500   1.747  1.00  0.00    +0.000 HD
ENDBRANCH  18  32
BRANCH  19  34
ATOM     34  O   UNL     1       5.817   3.437  -1.167  1.00  0.00    +0.000 OA
ATOM     35  H   UNL     1       5.839   3.592  -0.195  1.00  0.00    +0.000 HD
ENDBRANCH  19  34
BRANCH  20  36
ATOM     36  O   UNL     1       5.729   2.207  -3.624  1.00  0.00    +0.000 OA
ATOM     37  H   UNL     1       6.106   3.047  -3.295  1.00  0.00    +0.000 HD
ENDBRANCH  20  36
BRANCH   4  38
ATOM     38  O   UNL     1      -0.586   1.810  -1.091  1.00  0.00    +0.000 OA
BRANCH  38  39
ATOM     39  C   UNL     1       0.195   2.696  -1.757  1.00  0.00    +0.000 C 
ATOM     40  O   UNL     1       0.525   2.623  -2.930  1.00  0.00    +0.000 OA
BRANCH  39  41
ATOM     41  C   UNL     1       0.766   3.682  -0.814  1.00  0.00    +0.000 A 
ATOM     42  C   UNL     1       0.093   4.073   0.351  1.00  0.00    +0.000 A 
ATOM     43  C   UNL     1       0.711   4.970   1.212  1.00  0.00    +0.000 A 
ATOM     44  C   UNL     1       1.980   5.463   0.933  1.00  0.00    +0.000 A 
ATOM     45  C   UNL     1       2.652   5.065  -0.217  1.00  0.00    +0.000 A 
ATOM     46  C   UNL     1       2.048   4.184  -1.104  1.00  0.00    +0.000 A 
BRANCH  43  47
ATOM     47  O   UNL     1       0.062   5.361   2.348  1.00  0.00    +0.000 OA
ATOM     48  H   UNL     1       0.679   5.983   2.784  1.00  0.00    +0.000 HD
ENDBRANCH  43  47
BRANCH  44  49
ATOM     49  O   UNL     1       2.562   6.337   1.810  1.00  0.00    +0.000 OA
ATOM     50  H   UNL     1       3.426   6.550   1.401  1.00  0.00    +0.000 HD
ENDBRANCH  44  49
BRANCH  45  51
ATOM     51  O   UNL     1       3.912   5.553  -0.428  1.00  0.00    +0.000 OA
ATOM     52  H   UNL     1       4.291   5.090  -1.202  1.00  0.00    +0.000 HD
ENDBRANCH  45  51
ENDBRANCH  39  41
ENDBRANCH  38  39
ENDBRANCH   4  38
BRANCH   5  53
ATOM     53  O   UNL     1      -3.123   0.325  -1.626  1.00  0.00    +0.000 OA
BRANCH  53  54
ATOM     54  C   UNL     1      -4.229   0.136  -0.869  1.00  0.00    +0.000 C 
ATOM     55  O   UNL     1      -4.275  -0.476   0.186  1.00  0.00    +0.000 OA
BRANCH  54  56
ATOM     56  C   UNL     1      -5.418   0.769  -1.497  1.00  0.00    +0.000 A 
ATOM     57  C   UNL     1      -5.325   1.534  -2.671  1.00  0.00    +0.000 A 
ATOM     58  C   UNL     1      -6.476   2.099  -3.206  1.00  0.00    +0.000 A 
ATOM     59  C   UNL     1      -7.707   1.913  -2.591  1.00  0.00    +0.000 A 
ATOM     60  C   UNL     1      -7.803   1.157  -1.428  1.00  0.00    +0.000 A 
ATOM     61  C   UNL     1      -6.665   0.582  -0.873  1.00  0.00    +0.000 A 
BRANCH  58  62
ATOM     62  O   UNL     1      -6.388   2.842  -4.346  1.00  0.00    +0.000 OA
ATOM     63  H   UNL     1      -7.305   3.131  -4.527  1.00  0.00    +0.000 HD
ENDBRANCH  58  62
BRANCH  59  64
ATOM     64  O   UNL     1      -8.820   2.484  -3.144  1.00  0.00    +0.000 OA
ATOM     65  H   UNL     1      -9.550   2.220  -2.547  1.00  0.00    +0.000 HD
ENDBRANCH  59  64
BRANCH  60  66
ATOM     66  O   UNL     1      -9.040   1.008  -0.866  1.00  0.00    +0.000 OA
ATOM     67  H   UNL     1      -8.949   0.462  -0.065  1.00  0.00    +0.000 HD
ENDBRANCH  60  66
ENDBRANCH  54  56
ENDBRANCH  53  54
ENDBRANCH   5  53
BRANCH   6  68
ATOM     68  O   UNL     1      -1.639  -2.531  -0.261  1.00  0.00    +0.000 OA
BRANCH  68  69
ATOM     69  C   UNL     1      -2.659  -3.312   0.154  1.00  0.00    +0.000 C 
ATOM     70  O   UNL     1      -3.689  -3.550  -0.456  1.00  0.00    +0.000 OA
BRANCH  69  71
ATOM     71  C   UNL     1      -2.365  -3.873   1.503  1.00  0.00    +0.000 A 
ATOM     72  C   UNL     1      -3.347  -4.685   2.100  1.00  0.00    +0.000 A 
ATOM     73  C   UNL     1      -3.121  -5.217   3.365  1.00  0.00    +0.000 A 
ATOM     74  C   UNL     1      -1.935  -4.943   4.036  1.00  0.00    +0.000 A 
ATOM     75  C   UNL     1      -0.963  -4.140   3.453  1.00  0.00    +0.000 A 
ATOM     76  C   UNL     1      -1.164  -3.606   2.186  1.00  0.00    +0.000 A 
BRANCH  73  77
ATOM     77  O   UNL     1      -4.038  -6.012   3.993  1.00  0.00    +0.000 OA
ATOM     78  H   UNL     1      -4.811  -6.109   3.409  1.00  0.00    +0.000 HD
ENDBRANCH  73  77
BRANCH  74  79
ATOM     79  O   UNL     1      -1.703  -5.458   5.283  1.00  0.00    +0.000 OA
ATOM     80  H   UNL     1      -2.510  -5.976   5.483  1.00  0.00    +0.000 HD
ENDBRANCH  74  79
BRANCH  75  81
ATOM     81  O   UNL     1       0.192  -3.878   4.144  1.00  0.00    +0.000 OA
ATOM     82  H   UNL     1       0.073  -4.397   4.971  1.00  0.00    +0.000 HD
ENDBRANCH  75  81
ENDBRANCH  69  71
ENDBRANCH  68  69
ENDBRANCH   6  68
TORSDOF 24
