REMARK  Name = /srv/my_project/app/compsite/backup/Dave/CORINA_stuff/newPDBs/SANC00560.pdb
AUTHORGENERATED BY OPEN BABEL 2.3.2
REMARK  6 active torsions:
REMARK  status: ('A' for Active; 'I' for Inactive)
REMARK    1  A    between atoms: C_5  and  C_6
REMARK    2  A    between atoms: C_6  and  O_7
REMARK    3  A    between atoms: C_10  and  O_12
REMARK    4  A    between atoms: C_15  and  C_16
REMARK    5  A    between atoms: C_16  and  O_18
REMARK    6  A    between atoms: O_18  and  C_19
REMARK                            x       y       z     vdW  Elec       q    Type
REMARK                         _______ _______ _______ _____ _____    ______ ____
ROOT
ATOM      1  C   UNL     1       0.041   0.083  -0.733  1.00  0.00    +0.000 C 
ATOM      2  C   UNL     1      -0.285  -1.413  -0.877  1.00  0.00    +0.000 C 
ATOM      3  C   UNL     1      -1.776  -1.434  -0.792  1.00  0.00    +0.000 C 
ATOM      4  C   UNL     1      -2.271  -0.286  -0.303  1.00  0.00    +0.000 C 
ATOM      5  C   UNL     1      -1.161   0.691   0.024  1.00  0.00    +0.000 C 
ATOM      6  C   UNL     1      -0.891   0.802   1.533  1.00  0.00    +0.000 C 
ATOM      7  O   UNL     1       0.352   1.436   1.842  1.00  0.00    +0.000 OA
ATOM      8  C   UNL     1       1.422   1.025   1.094  1.00  0.00    +0.000 C 
ATOM      9  C   UNL     1       1.357   0.369  -0.073  1.00  0.00    +0.000 C 
ENDROOT
BRANCH   6  10
ATOM     10  O   UNL     1      -1.928   1.582   2.124  1.00  0.00    +0.000 OA
ATOM     11  H   UNL     1      -1.785   1.503   3.082  1.00  0.00    +0.000 HD
ENDBRANCH   6  10
BRANCH   9  12
ATOM     12  C   UNL     1       2.580  -0.023  -0.822  1.00  0.00    +0.000 C 
ATOM     13  O   UNL     1       2.543  -0.529  -1.934  1.00  0.00    +0.000 OA
BRANCH  12  14
ATOM     14  O   UNL     1       3.707   0.237  -0.113  1.00  0.00    +0.000 OA
ATOM     15  C   UNL     1       4.914  -0.126  -0.784  1.00  0.00    +0.000 C 
ENDBRANCH  12  14
ENDBRANCH   9  12
BRANCH   4  16
ATOM     16  C   UNL     1      -3.694   0.084  -0.038  1.00  0.00    +0.000 C 
BRANCH  16  17
ATOM     17  O   UNL     1      -4.574  -0.883  -0.592  1.00  0.00    +0.000 OA
ATOM     18  H   UNL     1      -4.385  -0.912  -1.545  1.00  0.00    +0.000 HD
ENDBRANCH  16  17
ENDBRANCH   4  16
TORSDOF 5
