REMARK  Name = SANCDB_01044_minRM1.pdb
AUTHORGENERATED BY OPEN BABEL 2.3.2
REMARK  4 active torsions:
REMARK  status: ('A' for Active; 'I' for Inactive)
REMARK    1  A    between atoms: C_3  and  O_12
REMARK    2  A    between atoms: C_6  and  C_7
REMARK    3  A    between atoms: C_8  and  C_9
REMARK    4  A    between atoms: C_9  and  O_11
REMARK                            x       y       z     vdW  Elec       q    Type
REMARK                         _______ _______ _______ _____ _____    ______ ____
ROOT
ATOM      1  C   UNL     1      -0.999   0.059  -1.256  1.00  0.00    +0.000 A 
ATOM      2  C   UNL     1      -2.360   0.332  -1.083  1.00  0.00    +0.000 A 
ATOM      3  C   UNL     1      -2.877   0.430   0.204  1.00  0.00    +0.000 A 
ATOM      4  C   UNL     1      -2.060   0.256   1.313  1.00  0.00    +0.000 A 
ATOM      5  C   UNL     1      -0.701  -0.016   1.138  1.00  0.00    +0.000 A 
ATOM      6  C   UNL     1      -0.153  -0.103  -0.150  1.00  0.00    +0.000 A 
ENDROOT
BRANCH   6   7
ATOM      7  C   UNL     1       1.264  -0.415  -0.383  1.00  0.00    +0.000 C 
ATOM      8  C   UNL     1       2.265   0.042   0.385  1.00  0.00    +0.000 C 
BRANCH   8   9
ATOM      9  C   UNL     1       3.681  -0.264   0.141  1.00  0.00    +0.000 C 
ATOM     10  O   UNL     1       4.599   0.140   0.832  1.00  0.00    +0.000 OA
BRANCH   9  11
ATOM     11  O   UNL     1       3.898  -1.043  -0.929  1.00  0.00    +0.000 OA
ATOM     12  H   UNL     1       4.871  -1.149  -0.946  1.00  0.00    +0.000 HD
ENDBRANCH   9  11
ENDBRANCH   8   9
ENDBRANCH   6   7
BRANCH   3  13
ATOM     13  O   UNL     1      -4.197   0.693   0.422  1.00  0.00    +0.000 OA
ATOM     14  H   UNL     1      -4.640   0.791  -0.437  1.00  0.00    +0.000 HD
ENDBRANCH   3  13
TORSDOF 4
