REMARK  Name = /srv/my_project/app/compsite/backup/Dave/CORINA_stuff/newPDBs/SANC00118.pdb
AUTHORGENERATED BY OPEN BABEL 2.3.2
REMARK  5 active torsions:
REMARK  status: ('A' for Active; 'I' for Inactive)
REMARK    1  A    between atoms: C_15  and  C_16
REMARK    2  A    between atoms: C_18  and  C_20
REMARK    3  A    between atoms: C_21  and  O_22
REMARK    4  A    between atoms: C_21  and  C_23
REMARK    5  A    between atoms: C_23  and  O_24
REMARK                            x       y       z     vdW  Elec       q    Type
REMARK                         _______ _______ _______ _____ _____    ______ ____
ROOT
ATOM      1  C   UNL     1       2.552  -1.126   0.617  1.00  0.00    +0.000 C 
ATOM      2  C   UNL     1       1.902  -1.372  -0.707  1.00  0.00    +0.000 C 
ATOM      3  C   UNL     1       2.603  -0.769  -1.673  1.00  0.00    +0.000 C 
ATOM      4  C   UNL     1       3.777  -0.041  -1.114  1.00  0.00    +0.000 C 
ATOM      5  N   UNL     1       3.835  -0.441   0.306  1.00  0.00    +0.000 NA
ATOM      6  C   UNL     1       4.005   0.692   1.221  1.00  0.00    +0.000 C 
ATOM      7  C   UNL     1       2.923   0.586   2.290  1.00  0.00    +0.000 C 
ATOM      8  C   UNL     1       1.832  -0.272   1.672  1.00  0.00    +0.000 C 
ATOM      9  O   UNL     1       0.661   0.425   1.206  1.00  0.00    +0.000 OA
ATOM     10  C   UNL     1       0.716   1.519   0.419  1.00  0.00    +0.000 C 
ATOM     11  O   UNL     1       1.692   2.208   0.185  1.00  0.00    +0.000 OA
ATOM     12  C   UNL     1      -0.643   1.755  -0.148  1.00  0.00    +0.000 C 
ATOM     13  C   UNL     1      -0.792   2.234  -1.401  1.00  0.00    +0.000 C 
ATOM     14  C   UNL     1       0.261   2.487  -2.432  1.00  0.00    +0.000 C 
ATOM     15  C   UNL     1      -1.837   1.539   0.753  1.00  0.00    +0.000 C 
ATOM     16  C   UNL     1      -2.329   0.079   0.981  1.00  0.00    +0.000 C 
ATOM     17  C   UNL     1      -3.546   0.164   1.920  1.00  0.00    +0.000 C 
ATOM     18  C   UNL     1      -2.627  -0.707  -0.333  1.00  0.00    +0.000 C 
ATOM     19  C   UNL     1      -1.341  -1.127  -1.087  1.00  0.00    +0.000 C 
ATOM     20  O   UNL     1      -1.215  -1.015  -2.303  1.00  0.00    +0.000 OA
ATOM     21  O   UNL     1      -0.443  -1.731  -0.260  1.00  0.00    +0.000 OA
ATOM     22  C   UNL     1       0.728  -2.273  -0.882  1.00  0.00    +0.000 C 
ENDROOT
BRANCH  18  23
ATOM     23  O   UNL     1      -3.426   0.134  -1.187  1.00  0.00    +0.000 OA
ATOM     24  H   UNL     1      -3.484  -0.313  -2.051  1.00  0.00    +0.000 HD
ENDBRANCH  18  23
BRANCH  18  25
ATOM     25  C   UNL     1      -3.373  -2.055  -0.128  1.00  0.00    +0.000 C 
BRANCH  25  26
ATOM     26  O   UNL     1      -4.745  -1.886   0.223  1.00  0.00    +0.000 OA
ATOM     27  H   UNL     1      -5.145  -2.771   0.284  1.00  0.00    +0.000 HD
ENDBRANCH  25  26
ENDBRANCH  18  25
TORSDOF 3
