REMARK  Name = /srv/my_project/app/compsite/backup/Dave/CORINA_stuff/newPDBs/SANC00561.pdb
AUTHORGENERATED BY OPEN BABEL 2.3.2
REMARK  8 active torsions:
REMARK  status: ('A' for Active; 'I' for Inactive)
REMARK    1  A    between atoms: C_5  and  C_6
REMARK    2  A    between atoms: C_6  and  O_7
REMARK    3  A    between atoms: O_7  and  C_8
REMARK    4  A    between atoms: C_8  and  C_9
REMARK    5  A    between atoms: C_13  and  O_15
REMARK    6  A    between atoms: C_18  and  C_19
REMARK    7  A    between atoms: C_19  and  O_21
REMARK    8  A    between atoms: O_21  and  C_22
REMARK                            x       y       z     vdW  Elec       q    Type
REMARK                         _______ _______ _______ _____ _____    ______ ____
ROOT
ATOM      1  C   UNL     1      -1.144   0.570  -0.028  1.00  0.00    +0.000 C 
ATOM      2  C   UNL     1      -0.847   0.540   1.482  1.00  0.00    +0.000 C 
ATOM      3  C   UNL     1       0.568   1.012   1.532  1.00  0.00    +0.000 C 
ATOM      4  C   UNL     1       1.167   0.932   0.334  1.00  0.00    +0.000 C 
ATOM      5  C   UNL     1       0.231   0.357  -0.710  1.00  0.00    +0.000 C 
ATOM      6  C   UNL     1       0.464  -1.139  -1.023  1.00  0.00    +0.000 C 
ATOM      7  O   UNL     1      -0.622  -1.749  -1.727  1.00  0.00    +0.000 OA
ATOM      8  C   UNL     1      -1.872  -1.442  -1.270  1.00  0.00    +0.000 C 
ATOM      9  C   UNL     1      -2.181  -0.417  -0.465  1.00  0.00    +0.000 C 
ENDROOT
BRANCH   6  10
ATOM     10  O   UNL     1       1.627  -1.326  -1.823  1.00  0.00    +0.000 OA
ATOM     11  H   UNL     1       1.544  -0.714  -2.571  1.00  0.00    +0.000 HD
ENDBRANCH   6  10
BRANCH   9  12
ATOM     12  C   UNL     1      -3.610  -0.252  -0.097  1.00  0.00    +0.000 C 
ATOM     13  O   UNL     1      -4.493  -1.043  -0.390  1.00  0.00    +0.000 OA
BRANCH  12  14
ATOM     14  O   UNL     1      -3.782   0.897   0.602  1.00  0.00    +0.000 OA
ATOM     15  C   UNL     1      -5.133   1.138   1.000  1.00  0.00    +0.000 C 
ENDBRANCH  12  14
ENDBRANCH   9  12
BRANCH   4  16
ATOM     16  C   UNL     1       2.557   1.386   0.024  1.00  0.00    +0.000 C 
BRANCH  16  17
ATOM     17  O   UNL     1       3.363   0.290  -0.405  1.00  0.00    +0.000 OA
BRANCH  17  18
ATOM     18  C   UNL     1       4.015  -0.386   0.578  1.00  0.00    +0.000 C 
ATOM     19  C   UNL     1       4.762  -1.544  -0.011  1.00  0.00    +0.000 C 
ATOM     20  O   UNL     1       4.002  -0.110   1.769  1.00  0.00    +0.000 OA
ENDBRANCH  17  18
ENDBRANCH  16  17
ENDBRANCH   4  16
TORSDOF 6
