REMARK  Name = /srv/my_project/app/compsite/backup/Dave/CORINA_stuff/newPDBs/SANC00645.pdb
AUTHORGENERATED BY OPEN BABEL 2.3.2
REMARK  0 active torsions:
REMARK  status: ('A' for Active; 'I' for Inactive)
REMARK                            x       y       z     vdW  Elec       q    Type
REMARK                         _______ _______ _______ _____ _____    ______ ____
ROOT
ATOM      1  C   UNL     1      -3.053   1.158  -1.899  1.00  0.00    +0.000 A 
ATOM      2  C   UNL     1      -4.029   0.842  -0.968  1.00  0.00    +0.000 A 
ATOM      3  C   UNL     1      -3.656   0.267   0.248  1.00  0.00    +0.000 A 
ATOM      4  C   UNL     1      -2.330  -0.002   0.561  1.00  0.00    +0.000 A 
ATOM      5  C   UNL     1      -1.317   0.312  -0.377  1.00  0.00    +0.000 A 
ATOM      6  C   UNL     1      -1.714   0.896  -1.608  1.00  0.00    +0.000 A 
ATOM      7  C   UNL     1       0.040   0.019  -0.017  1.00  0.00    +0.000 A 
ATOM      8  C   UNL     1       1.161   0.277  -0.849  1.00  0.00    +0.000 A 
ATOM      9  C   UNL     1       2.428  -0.045  -0.405  1.00  0.00    +0.000 A 
ATOM     10  C   UNL     1       2.641  -0.610   0.823  1.00  0.00    +0.000 A 
ATOM     11  C   UNL     1       1.599  -0.884   1.676  1.00  0.00    +0.000 A 
ATOM     12  C   UNL     1       0.292  -0.568   1.254  1.00  0.00    +0.000 A 
ATOM     13  C   UNL     1      -0.798  -0.824   2.074  1.00  0.00    +0.000 A 
ATOM     14  N   UNL     1      -2.081  -0.555   1.754  1.00  0.00    +0.000 NA
ATOM     15  O   UNL     1       3.956  -0.848   1.068  1.00  0.00    +0.000 OA
ATOM     16  C   UNL     1       4.550  -0.365  -0.155  1.00  0.00    +0.000 C 
ATOM     17  O   UNL     1       3.583   0.147  -1.097  1.00  0.00    +0.000 OA
ENDROOT
TORSDOF 0
