REMARK  Name = /srv/my_project/app/compsite/backup/Dave/CORINA_stuff/newPDBs/SANC00428.pdb
AUTHORGENERATED BY OPEN BABEL 2.3.2
REMARK  3 active torsions:
REMARK  status: ('A' for Active; 'I' for Inactive)
REMARK    1  A    between atoms: CA_8  and  CB_14
REMARK    2  A    between atoms: CB_14  and  CG_15
REMARK    3  A    between atoms: CZ_18  and  OH_21
REMARK                            x       y       z     vdW  Elec       q    Type
REMARK                         _______ _______ _______ _____ _____    ______ ____
ROOT
ATOM      1  CG  PRO A   2      -4.528  -0.632  -0.438  1.00  0.00    +0.000 C 
ATOM      2  CB  PRO A   2      -3.608  -1.252   0.618  1.00  0.00    +0.000 C 
ATOM      3  CA  PRO A   2      -2.605  -0.138   0.856  1.00  0.00    +0.000 C 
ATOM      4  C   PRO A   2      -1.292  -0.539   1.521  1.00  0.00    +0.000 C 
ATOM      5  O   PRO A   2      -1.163  -1.464   2.313  1.00  0.00    +0.000 OA
ATOM      6  N   TYR A   1      -0.302   0.411   1.354  1.00  0.00    +0.000 N 
ATOM      7  CA  TYR A   1      -0.111   1.058   0.047  1.00  0.00    +0.000 C 
ATOM      8  C   TYR A   1      -1.423   1.333  -0.729  1.00  0.00    +0.000 C 
ATOM      9  O   TYR A   1      -1.483   2.141  -1.653  1.00  0.00    +0.000 OA
ATOM     10  N   PRO A   2      -2.413   0.409  -0.473  1.00  0.00    +0.000 N 
ATOM     11  CD  PRO A   2      -3.604   0.247  -1.282  1.00  0.00    +0.000 C 
ATOM     12  H   TYR A   1       0.546   0.188   1.863  1.00  0.00    +0.000 HD
ENDROOT
BRANCH   7  13
ATOM     13  CB  TYR A   1       0.783   0.204  -0.875  1.00  0.00    +0.000 C 
BRANCH  13  14
ATOM     14  CG  TYR A   1       2.196   0.064  -0.356  1.00  0.00    +0.000 A 
ATOM     15  CD2 TYR A   1       3.126   1.097  -0.543  1.00  0.00    +0.000 A 
ATOM     16  CE2 TYR A   1       4.426   0.980  -0.046  1.00  0.00    +0.000 A 
ATOM     17  CZ  TYR A   1       4.794  -0.171   0.641  1.00  0.00    +0.000 A 
ATOM     18  CE1 TYR A   1       3.886  -1.204   0.838  1.00  0.00    +0.000 A 
ATOM     19  CD1 TYR A   1       2.588  -1.089   0.340  1.00  0.00    +0.000 A 
BRANCH  17  20
ATOM     20  OH  TYR A   1       6.051  -0.327   1.145  1.00  0.00    +0.000 OA
ATOM     21  HH  TYR A   1       6.576   0.458   0.918  1.00  0.00    +0.000 HD
ENDBRANCH  17  20
ENDBRANCH  13  14
ENDBRANCH   7  13
TORSDOF 3
