REMARK  Name = SANCDB01052.pdb
REMARK  9 active torsions:
REMARK  status: ('A' for Active; 'I' for Inactive)
REMARK    1  A    between atoms: C_1  and  C_2
REMARK    2  A    between atoms: C_2  and  C_4
REMARK    3  A    between atoms: C_5  and  O_15
REMARK    4  A    between atoms: C_6  and  O_13
REMARK    5  A    between atoms: C_7  and  O_11
REMARK    6  A    between atoms: C_9  and  O_10
REMARK    7  A    between atoms: O_11  and  C_12
REMARK    8  A    between atoms: O_13  and  C_14
REMARK    9  A    between atoms: O_15  and  C_16
REMARK                            x       y       z     vdW  Elec       q    Type
REMARK                         _______ _______ _______ _____ _____    ______ ____
ROOT
ATOM      1  C   UNL     1       1.244   0.697   0.405  1.00  0.00    +0.000 A 
ATOM      2  C   UNL     1       0.613  -0.463  -0.071  1.00  0.00    +0.000 A 
ATOM      3  C   UNL     1      -0.790  -0.474  -0.217  1.00  0.00    +0.000 A 
ATOM      4  C   UNL     1      -1.562   0.679   0.018  1.00  0.00    +0.000 A 
ATOM      5  C   UNL     1      -0.927   1.828   0.479  1.00  0.00    +0.000 A 
ATOM      6  C   UNL     1       0.453   1.827   0.688  1.00  0.00    +0.000 A 
ENDROOT
BRANCH   1   8
ATOM      7  C   UNL     1       3.680  -0.078  -0.123  1.00  0.00    +0.000 C 
ATOM      8  C   UNL     1       2.718   0.802   0.627  1.00  0.00    +0.000 C 
ATOM      9  O   UNL     1       3.131   1.660   1.413  1.00  0.00    +0.000 OA
ENDBRANCH   1   8
BRANCH   6  10
ATOM     10  O   UNL     1       0.970   3.000   1.181  1.00  0.00    +0.000 OA
ATOM     11  H   UNL     1       1.902   2.832   1.451  1.00  0.00    +0.000 HD
ENDBRANCH   6  10
BRANCH   4  12
ATOM     12  O   UNL     1      -2.909   0.567  -0.210  1.00  0.00    +0.000 OA
ATOM     13  C   UNL     1      -3.696   1.743  -0.070  1.00  0.00    +0.000 C 
ENDBRANCH   4  12
BRANCH   3  14
ATOM     14  O   UNL     1      -1.424  -1.625  -0.629  1.00  0.00    +0.000 OA
ATOM     15  C   UNL     1      -1.887  -2.358   0.508  1.00  0.00    +0.000 C 
ENDBRANCH   3  14
BRANCH   2  16
ATOM     16  O   UNL     1       1.370  -1.590  -0.275  1.00  0.00    +0.000 OA
ATOM     17  C   UNL     1       1.170  -2.202  -1.552  1.00  0.00    +0.000 C 
ENDBRANCH   2  16
TORSDOF 5
