REMARK  Name = /srv/my_project/app/compsite/backup/Dave/CORINA_stuff/newPDBs/SANC00702.pdb
AUTHORGENERATED BY OPEN BABEL 2.3.2
REMARK  6 active torsions:
REMARK  status: ('A' for Active; 'I' for Inactive)
REMARK    1  A    between atoms: C_1  and  C_2
REMARK    2  A    between atoms: C_6  and  C_7
REMARK    3  A    between atoms: C_6  and  O_8
REMARK    4  A    between atoms: C_11  and  C_13
REMARK    5  A    between atoms: C_13  and  C_14
REMARK    6  A    between atoms: C_13  and  C_15
REMARK                            x       y       z     vdW  Elec       q    Type
REMARK                         _______ _______ _______ _____ _____    ______ ____
ROOT
ATOM      1  C   UNL     1       4.557  -0.077  -0.733  1.00  0.00    +0.000 C 
ATOM      2  C   UNL     1       3.191  -0.217  -1.346  1.00  0.00    +0.000 C 
ATOM      3  C   UNL     1       2.308   0.785  -1.527  1.00  0.00    +0.000 C 
ATOM      4  C   UNL     1       2.488   2.244  -1.231  1.00  0.00    +0.000 C 
ATOM      5  C   UNL     1       1.733   2.756   0.003  1.00  0.00    +0.000 C 
ATOM      6  C   UNL     1       0.183   2.794  -0.040  1.00  0.00    +0.000 C 
ATOM      7  C   UNL     1      -0.412   2.957  -1.443  1.00  0.00    +0.000 C 
ATOM      8  C   UNL     1      -0.466   1.697   0.785  1.00  0.00    +0.000 C 
ATOM      9  C   UNL     1      -1.144   0.614   0.361  1.00  0.00    +0.000 C 
ATOM     10  C   UNL     1      -2.017  -0.218   1.291  1.00  0.00    +0.000 C 
ATOM     11  C   UNL     1      -1.334  -1.524   1.759  1.00  0.00    +0.000 C 
ATOM     12  C   UNL     1      -1.149  -2.634   0.712  1.00  0.00    +0.000 C 
ATOM     13  C   UNL     1       0.198  -2.744   0.088  1.00  0.00    +0.000 C 
ATOM     14  C   UNL     1       1.307  -2.018   0.201  1.00  0.00    +0.000 C 
ATOM     15  C   UNL     1       2.400  -2.555  -0.642  1.00  0.00    +0.000 C 
ATOM     16  C   UNL     1       2.820  -1.622  -1.787  1.00  0.00    +0.000 C 
ATOM     17  O   UNL     1       1.834  -3.746  -1.202  1.00  0.00    +0.000 OA
ATOM     18  C   UNL     1       0.528  -3.848  -0.827  1.00  0.00    +0.000 C 
ATOM     19  O   UNL     1      -0.241  -4.722  -1.182  1.00  0.00    +0.000 OA
ENDROOT
BRANCH  10  20
ATOM     20  C   UNL     1      -3.443  -0.407   0.679  1.00  0.00    +0.000 C 
ATOM     21  C   UNL     1      -4.141   0.944   0.447  1.00  0.00    +0.000 C 
ATOM     22  C   UNL     1      -4.352  -1.277   1.555  1.00  0.00    +0.000 C 
ENDBRANCH  10  20
BRANCH   6  23
ATOM     23  O   UNL     1      -0.206   4.010   0.640  1.00  0.00    +0.000 OA
ATOM     24  H   UNL     1       0.218   4.014   1.514  1.00  0.00    +0.000 HD
ENDBRANCH   6  23
TORSDOF 2
