REMARK  Name = /srv/my_project/app/compsite/backup/Dave/CORINA_stuff/newPDBs/SANC00699.pdb
AUTHORGENERATED BY OPEN BABEL 2.3.2
REMARK  8 active torsions:
REMARK  status: ('A' for Active; 'I' for Inactive)
REMARK    1  A    between atoms: C_1  and  C_2
REMARK    2  A    between atoms: C_2  and  O_3
REMARK    3  A    between atoms: C_7  and  C_8
REMARK    4  A    between atoms: C_7  and  O_9
REMARK    5  A    between atoms: C_12  and  O_13
REMARK    6  A    between atoms: C_12  and  C_14
REMARK    7  A    between atoms: C_14  and  C_15
REMARK    8  A    between atoms: C_14  and  C_16
REMARK                            x       y       z     vdW  Elec       q    Type
REMARK                         _______ _______ _______ _____ _____    ______ ____
ROOT
ATOM      1  C   UNL     1       4.745   0.073  -1.522  1.00  0.00    +0.000 C 
ATOM      2  C   UNL     1       3.346  -0.425  -1.139  1.00  0.00    +0.000 C 
ATOM      3  C   UNL     1       2.324   0.693  -1.262  1.00  0.00    +0.000 C 
ATOM      4  C   UNL     1       2.066   1.656  -0.359  1.00  0.00    +0.000 C 
ATOM      5  C   UNL     1       0.927   2.643  -0.477  1.00  0.00    +0.000 C 
ATOM      6  C   UNL     1      -0.041   2.793   0.744  1.00  0.00    +0.000 C 
ATOM      7  C   UNL     1       0.723   2.942   2.069  1.00  0.00    +0.000 C 
ATOM      8  C   UNL     1      -1.148   1.770   0.931  1.00  0.00    +0.000 C 
ATOM      9  C   UNL     1      -1.347   0.590   0.311  1.00  0.00    +0.000 C 
ATOM     10  C   UNL     1      -2.547  -0.353   0.452  1.00  0.00    +0.000 C 
ATOM     11  C   UNL     1      -2.282  -1.558   1.413  1.00  0.00    +0.000 C 
ATOM     12  C   UNL     1      -1.352  -2.698   0.955  1.00  0.00    +0.000 C 
ATOM     13  C   UNL     1       0.076  -2.349   1.121  1.00  0.00    +0.000 C 
ATOM     14  C   UNL     1       0.898  -1.784   0.245  1.00  0.00    +0.000 C 
ATOM     15  C   UNL     1       2.068  -1.248   0.964  1.00  0.00    +0.000 C 
ATOM     16  C   UNL     1       3.400  -1.174   0.224  1.00  0.00    +0.000 C 
ATOM     17  O   UNL     1       2.111  -2.029   2.157  1.00  0.00    +0.000 OA
ATOM     18  C   UNL     1       0.852  -2.524   2.359  1.00  0.00    +0.000 C 
ATOM     19  O   UNL     1       0.448  -3.042   3.383  1.00  0.00    +0.000 OA
ENDROOT
BRANCH  10  20
ATOM     20  C   UNL     1      -3.049  -0.791  -0.967  1.00  0.00    +0.000 C 
ATOM     21  C   UNL     1      -3.426   0.407  -1.859  1.00  0.00    +0.000 C 
ATOM     22  C   UNL     1      -4.262  -1.732  -0.911  1.00  0.00    +0.000 C 
ENDBRANCH  10  20
BRANCH   2  23
ATOM     23  O   UNL     1       2.956  -1.405  -2.113  1.00  0.00    +0.000 OA
ATOM     24  H   UNL     1       3.203  -1.071  -2.993  1.00  0.00    +0.000 HD
ENDBRANCH   2  23
BRANCH   6  25
ATOM     25  O   UNL     1      -0.753   4.028   0.540  1.00  0.00    +0.000 OA
ATOM     26  H   UNL     1      -0.112   4.757   0.580  1.00  0.00    +0.000 HD
ENDBRANCH   6  25
BRANCH  10  27
ATOM     27  O   UNL     1      -3.623   0.387   1.055  1.00  0.00    +0.000 OA
ATOM     28  H   UNL     1      -3.383   0.554   1.981  1.00  0.00    +0.000 HD
ENDBRANCH  10  27
TORSDOF 4
