REMARK  Name = SANCDB_01017_minRM1.pdb
AUTHORGENERATED BY OPEN BABEL 2.3.2
REMARK  6 active torsions:
REMARK  status: ('A' for Active; 'I' for Inactive)
REMARK    1  A    between atoms: C_1  and  C_2
REMARK    2  A    between atoms: C_2  and  O_4
REMARK    3  A    between atoms: O_4  and  C_5
REMARK    4  A    between atoms: C_6  and  C_18
REMARK    5  A    between atoms: C_10  and  O_17
REMARK    6  A    between atoms: C_12  and  O_16
REMARK                            x       y       z     vdW  Elec       q    Type
REMARK                         _______ _______ _______ _____ _____    ______ ____
ROOT
ATOM      1  C   UNL     1      -0.418   0.822  -0.061  1.00  0.00    +0.000 C 
ATOM      2  C   UNL     1      -0.080  -0.565   0.490  1.00  0.00    +0.000 C 
ATOM      3  O   UNL     1       0.974  -1.190  -0.263  1.00  0.00    +0.000 OA
ATOM      4  C   UNL     1       2.067  -0.398  -0.496  1.00  0.00    +0.000 A 
ATOM      5  C   UNL     1       3.203  -1.077  -0.944  1.00  0.00    +0.000 A 
ATOM      6  C   UNL     1       4.365  -0.363  -1.212  1.00  0.00    +0.000 A 
ATOM      7  C   UNL     1       4.409   1.017  -1.050  1.00  0.00    +0.000 A 
ATOM      8  C   UNL     1       3.269   1.696  -0.616  1.00  0.00    +0.000 A 
ATOM      9  C   UNL     1       2.091   0.993  -0.335  1.00  0.00    +0.000 A 
ATOM     10  C   UNL     1       0.842   1.651   0.118  1.00  0.00    +0.000 C 
ATOM     11  O   UNL     1       0.835   2.768   0.626  1.00  0.00    +0.000 OA
ENDROOT
BRANCH   2  12
ATOM     12  C   UNL     1      -1.282  -1.497   0.432  1.00  0.00    +0.000 A 
ATOM     13  C   UNL     1      -1.976  -1.823   1.608  1.00  0.00    +0.000 A 
ATOM     14  C   UNL     1      -3.094  -2.659   1.564  1.00  0.00    +0.000 A 
ATOM     15  C   UNL     1      -3.533  -3.175   0.347  1.00  0.00    +0.000 A 
ATOM     16  C   UNL     1      -2.856  -2.857  -0.828  1.00  0.00    +0.000 A 
ATOM     17  C   UNL     1      -1.738  -2.022  -0.788  1.00  0.00    +0.000 A 
ENDBRANCH   2  12
BRANCH   8  18
ATOM     18  O   UNL     1       3.317   3.055  -0.501  1.00  0.00    +0.000 OA
ATOM     19  H   UNL     1       4.212   3.379  -0.689  1.00  0.00    +0.000 HD
ENDBRANCH   8  18
BRANCH   6  20
ATOM     20  O   UNL     1       5.498  -0.985  -1.645  1.00  0.00    +0.000 OA
ATOM     21  H   UNL     1       5.330  -1.940  -1.716  1.00  0.00    +0.000 HD
ENDBRANCH   6  20
BRANCH   1  22
ATOM     22  O   UNL     1      -1.486   1.411   0.696  1.00  0.00    +0.000 OA
BRANCH  22  24
ATOM     23  C   UNL     1      -3.221   2.962   0.945  1.00  0.00    +0.000 C 
ATOM     24  C   UNL     1      -2.215   2.342   0.025  1.00  0.00    +0.000 C 
ATOM     25  O   UNL     1      -2.094   2.624  -1.158  1.00  0.00    +0.000 OA
ENDBRANCH  22  24
ENDBRANCH   1  22
TORSDOF 5
