REMARK  Name = SANCDB_00898_minRM1.pdb
AUTHORGENERATED BY OPEN BABEL 2.3.2
REMARK  4 active torsions:
REMARK  status: ('A' for Active; 'I' for Inactive)
REMARK    1  A    between atoms: C_1  and  C_2
REMARK    2  A    between atoms: C_6  and  C_19
REMARK    3  A    between atoms: C_6  and  C_20
REMARK    4  A    between atoms: C_20  and  O_22
REMARK                            x       y       z     vdW  Elec       q    Type
REMARK                         _______ _______ _______ _____ _____    ______ ____
ROOT
ATOM      1  C   UNL     1      -0.482  -0.171   1.784  1.00  0.00    +0.000 C 
ATOM      2  C   UNL     1      -0.558  -0.649   0.316  1.00  0.00    +0.000 C 
ATOM      3  C   UNL     1      -1.225  -2.069   0.323  1.00  0.00    +0.000 C 
ATOM      4  C   UNL     1      -2.715  -2.095  -0.024  1.00  0.00    +0.000 C 
ATOM      5  C   UNL     1      -3.463  -0.877   0.497  1.00  0.00    +0.000 C 
ATOM      6  C   UNL     1      -2.936   0.448  -0.120  1.00  0.00    +0.000 C 
ATOM      7  C   UNL     1      -1.431   0.314  -0.562  1.00  0.00    +0.000 C 
ATOM      8  C   UNL     1      -0.732   1.665  -0.800  1.00  0.00    +0.000 C 
ATOM      9  C   UNL     1       0.595   1.478  -1.522  1.00  0.00    +0.000 C 
ATOM     10  C   UNL     1       1.573   0.559  -0.784  1.00  0.00    +0.000 C 
ATOM     11  C   UNL     1       0.887  -0.782  -0.339  1.00  0.00    +0.000 C 
ATOM     12  C   UNL     1       1.859  -1.707   0.448  1.00  0.00    +0.000 C 
ATOM     13  C   UNL     1       2.903  -0.984   1.312  1.00  0.00    +0.000 C 
ATOM     14  C   UNL     1       3.440   0.297   0.665  1.00  0.00    +0.000 C 
ATOM     15  C   UNL     1       2.279   1.251   0.393  1.00  0.00    +0.000 C 
ATOM     16  C   UNL     1       3.928   0.028  -0.737  1.00  0.00    +0.000 C 
ATOM     17  C   UNL     1       5.174  -0.323  -1.075  1.00  0.00    +0.000 C 
ATOM     18  C   UNL     1       2.799   0.267  -1.706  1.00  0.00    +0.000 C 
ATOM     19  C   UNL     1      -3.802   0.738  -1.376  1.00  0.00    +0.000 C 
ENDROOT
BRANCH   6  20
ATOM     20  C   UNL     1      -3.155   1.581   0.893  1.00  0.00    +0.000 C 
ATOM     21  O   UNL     1      -3.156   1.493   2.110  1.00  0.00    +0.000 OA
BRANCH  20  22
ATOM     22  O   UNL     1      -3.339   2.793   0.333  1.00  0.00    +0.000 OA
ATOM     23  H   UNL     1      -3.448   3.391   1.102  1.00  0.00    +0.000 HD
ENDBRANCH  20  22
ENDBRANCH   6  20
TORSDOF 2
