REMARK  Name = /srv/my_project/app/compsite/backup/Dave/CORINA_stuff/newPDBs/SANC00103.pdb
AUTHORGENERATED BY OPEN BABEL 2.3.2
REMARK  7 active torsions:
REMARK  status: ('A' for Active; 'I' for Inactive)
REMARK    1  A    between atoms: O_1  and  C_2
REMARK    2  A    between atoms: C_4  and  C_10
REMARK    3  A    between atoms: C_6  and  O_7
REMARK    4  A    between atoms: C_8  and  O_9
REMARK    5  A    between atoms: C_15  and  O_16
REMARK    6  A    between atoms: C_18  and  O_19
REMARK    7  A    between atoms: C_22  and  O_24
REMARK                            x       y       z     vdW  Elec       q    Type
REMARK                         _______ _______ _______ _____ _____    ______ ____
ROOT
ATOM      1  C   UNL     1       0.352  -0.863  -1.581  1.00  0.00    +0.000 C 
ATOM      2  O   UNL     1       1.117   0.366  -1.643  1.00  0.00    +0.000 OA
ATOM      3  C   UNL     1       1.696   0.763  -0.461  1.00  0.00    +0.000 A 
ATOM      4  C   UNL     1       2.127   2.090  -0.425  1.00  0.00    +0.000 A 
ATOM      5  C   UNL     1       2.710   2.593   0.731  1.00  0.00    +0.000 A 
ATOM      6  C   UNL     1       2.867   1.789   1.853  1.00  0.00    +0.000 A 
ATOM      7  C   UNL     1       2.440   0.463   1.807  1.00  0.00    +0.000 A 
ATOM      8  C   UNL     1       1.875  -0.082   0.646  1.00  0.00    +0.000 A 
ATOM      9  C   UNL     1       1.475  -1.528   0.560  1.00  0.00    +0.000 C 
ATOM     10  C   UNL     1       1.228  -1.934  -0.890  1.00  0.00    +0.000 C 
ENDROOT
BRANCH   1  13
ATOM     11  C   UNL     1      -3.146  -1.345  -0.048  1.00  0.00    +0.000 A 
ATOM     12  C   UNL     1      -1.859  -1.618  -0.503  1.00  0.00    +0.000 A 
ATOM     13  C   UNL     1      -1.062  -0.594  -1.051  1.00  0.00    +0.000 A 
ATOM     14  C   UNL     1      -1.630   0.696  -1.169  1.00  0.00    +0.000 A 
ATOM     15  C   UNL     1      -2.920   0.951  -0.708  1.00  0.00    +0.000 A 
ATOM     16  C   UNL     1      -3.673  -0.068  -0.146  1.00  0.00    +0.000 A 
BRANCH  11  17
ATOM     17  O   UNL     1      -3.891  -2.352   0.496  1.00  0.00    +0.000 OA
ATOM     18  H   UNL     1      -4.743  -1.927   0.724  1.00  0.00    +0.000 HD
ENDBRANCH  11  17
BRANCH  15  19
ATOM     19  O   UNL     1      -3.486   2.192  -0.791  1.00  0.00    +0.000 OA
ATOM     20  H   UNL     1      -2.827   2.798  -1.173  1.00  0.00    +0.000 HD
ENDBRANCH  15  19
BRANCH  16  21
ATOM     21  O   UNL     1      -4.941   0.170   0.309  1.00  0.00    +0.000 OA
ATOM     22  H   UNL     1      -5.082   1.121   0.126  1.00  0.00    +0.000 HD
ENDBRANCH  16  21
ENDBRANCH   1  13
BRANCH   5  23
ATOM     23  O   UNL     1       3.111   3.896   0.728  1.00  0.00    +0.000 OA
ATOM     24  H   UNL     1       3.511   4.098   1.590  1.00  0.00    +0.000 HD
ENDBRANCH   5  23
BRANCH   7  25
ATOM     25  O   UNL     1       2.614  -0.262   2.953  1.00  0.00    +0.000 OA
ATOM     26  H   UNL     1       2.045  -1.048   2.926  1.00  0.00    +0.000 HD
ENDBRANCH   7  25
BRANCH  10  27
ATOM     27  O   UNL     1       0.703  -3.255  -0.981  1.00  0.00    +0.000 OA
ATOM     28  H   UNL     1       1.372  -3.866  -0.625  1.00  0.00    +0.000 HD
ENDBRANCH  10  27
TORSDOF 7
