REMARK  Name = SANCDB_01032_minRM1.pdb
AUTHORGENERATED BY OPEN BABEL 2.3.2
REMARK  9 active torsions:
REMARK  status: ('A' for Active; 'I' for Inactive)
REMARK    1  A    between atoms: C_3  and  O_40
REMARK    2  A    between atoms: C_6  and  C_7
REMARK    3  A    between atoms: C_14  and  C_20
REMARK    4  A    between atoms: C_15  and  O_19
REMARK    5  A    between atoms: C_17  and  O_18
REMARK    6  A    between atoms: C_21  and  O_39
REMARK    7  A    between atoms: C_24  and  C_26
REMARK    8  A    between atoms: C_31  and  O_38
REMARK    9  A    between atoms: C_33  and  O_37
REMARK                            x       y       z     vdW  Elec       q    Type
REMARK                         _______ _______ _______ _____ _____    ______ ____
ROOT
ATOM      1  C   UNL     1       2.964   0.706  -0.945  1.00  0.00    +0.000 A 
ATOM      2  C   UNL     1       3.747   1.686  -1.415  1.00  0.00    +0.000 A 
ATOM      3  C   UNL     1       3.807   2.955  -0.680  1.00  0.00    +0.000 A 
ATOM      4  O   UNL     1       4.521   3.877  -1.058  1.00  0.00    +0.000 OA
ATOM      5  C   UNL     1       2.974   3.079   0.524  1.00  0.00    +0.000 A 
ATOM      6  C   UNL     1       2.184   1.992   0.909  1.00  0.00    +0.000 A 
ATOM      7  O   UNL     1       2.189   0.811   0.195  1.00  0.00    +0.000 OA
ATOM      8  C   UNL     1       1.353   2.057   2.055  1.00  0.00    +0.000 A 
ATOM      9  C   UNL     1       1.390   3.255   2.798  1.00  0.00    +0.000 A 
ATOM     10  C   UNL     1       2.166   4.347   2.408  1.00  0.00    +0.000 A 
ATOM     11  C   UNL     1       2.958   4.258   1.271  1.00  0.00    +0.000 A 
ENDROOT
BRANCH   1  17
ATOM     12  C   UNL     1       1.578  -1.197  -1.764  1.00  0.00    +0.000 A 
ATOM     13  C   UNL     1       1.440  -2.434  -2.399  1.00  0.00    +0.000 A 
ATOM     14  C   UNL     1       2.563  -3.076  -2.904  1.00  0.00    +0.000 A 
ATOM     15  C   UNL     1       3.824  -2.504  -2.783  1.00  0.00    +0.000 A 
ATOM     16  C   UNL     1       3.961  -1.266  -2.146  1.00  0.00    +0.000 A 
ATOM     17  C   UNL     1       2.839  -0.593  -1.635  1.00  0.00    +0.000 A 
BRANCH  14  18
ATOM     18  O   UNL     1       2.383  -4.280  -3.516  1.00  0.00    +0.000 OA
ATOM     19  H   UNL     1       3.244  -4.606  -3.826  1.00  0.00    +0.000 HD
ENDBRANCH  14  18
ENDBRANCH   1  17
BRANCH   8  20
ATOM     20  C   UNL     1       0.466   0.919   2.412  1.00  0.00    +0.000 A 
ATOM     21  C   UNL     1       0.526   0.257   3.648  1.00  0.00    +0.000 A 
ATOM     22  C   UNL     1      -0.282  -0.845   3.931  1.00  0.00    +0.000 A 
ATOM     23  C   UNL     1      -1.178  -1.313   2.968  1.00  0.00    +0.000 A 
ATOM     24  C   UNL     1      -1.279  -0.680   1.724  1.00  0.00    +0.000 A 
ATOM     25  C   UNL     1      -0.470   0.440   1.472  1.00  0.00    +0.000 A 
BRANCH  24  26
ATOM     26  C   UNL     1      -2.216  -1.152   0.688  1.00  0.00    +0.000 A 
ATOM     27  C   UNL     1      -2.321  -2.453   0.378  1.00  0.00    +0.000 A 
ATOM     28  C   UNL     1      -3.257  -2.858  -0.681  1.00  0.00    +0.000 A 
ATOM     29  O   UNL     1      -3.397  -4.035  -0.996  1.00  0.00    +0.000 OA
ATOM     30  C   UNL     1      -4.016  -1.794  -1.346  1.00  0.00    +0.000 A 
ATOM     31  C   UNL     1      -4.929  -2.071  -2.368  1.00  0.00    +0.000 A 
ATOM     32  C   UNL     1      -5.631  -1.033  -2.975  1.00  0.00    +0.000 A 
ATOM     33  C   UNL     1      -5.415   0.278  -2.557  1.00  0.00    +0.000 A 
ATOM     34  C   UNL     1      -4.507   0.567  -1.541  1.00  0.00    +0.000 A 
ATOM     35  C   UNL     1      -3.807  -0.478  -0.936  1.00  0.00    +0.000 A 
ATOM     36  O   UNL     1      -2.924  -0.140   0.060  1.00  0.00    +0.000 OA
BRANCH  33  37
ATOM     37  O   UNL     1      -6.122   1.265  -3.177  1.00  0.00    +0.000 OA
ATOM     38  H   UNL     1      -5.883   2.124  -2.791  1.00  0.00    +0.000 HD
ENDBRANCH  33  37
BRANCH  31  39
ATOM     39  O   UNL     1      -5.181  -3.338  -2.818  1.00  0.00    +0.000 OA
ATOM     40  H   UNL     1      -4.621  -3.965  -2.309  1.00  0.00    +0.000 HD
ENDBRANCH  31  39
ENDBRANCH  24  26
BRANCH  21  41
ATOM     41  O   UNL     1       1.374   0.729   4.615  1.00  0.00    +0.000 OA
ATOM     42  H   UNL     1       1.481   0.044   5.299  1.00  0.00    +0.000 HD
ENDBRANCH  21  41
ENDBRANCH   8  20
BRANCH  11  43
ATOM     43  O   UNL     1       3.701   5.361   0.947  1.00  0.00    +0.000 OA
ATOM     44  H   UNL     1       4.216   5.159   0.133  1.00  0.00    +0.000 HD
ENDBRANCH  11  43
BRANCH   9  45
ATOM     45  O   UNL     1       0.671   3.424   3.951  1.00  0.00    +0.000 OA
ATOM     46  H   UNL     1       0.628   2.549   4.383  1.00  0.00    +0.000 HD
ENDBRANCH   9  45
TORSDOF 9
