REMARK  Name = /srv/my_project/app/compsite/backup/Dave/CORINA_stuff/newPDBs/SANC00351.pdb
AUTHORGENERATED BY OPEN BABEL 2.3.2
REMARK  7 active torsions:
REMARK  status: ('A' for Active; 'I' for Inactive)
REMARK    1  A    between atoms: C_1  and  O_2
REMARK    2  A    between atoms: O_2  and  C_3
REMARK    3  A    between atoms: C_6  and  C_7
REMARK    4  A    between atoms: C_7  and  C_8
REMARK    5  A    between atoms: C_14  and  O_15
REMARK    6  A    between atoms: C_17  and  O_18
REMARK    7  A    between atoms: C_23  and  O_24
REMARK                            x       y       z     vdW  Elec       q    Type
REMARK                         _______ _______ _______ _____ _____    ______ ____
ROOT
ATOM      1  C   UNL     1      -0.906  -0.633   0.781  1.00  0.00    +0.000 C 
ATOM      2  C   UNL     1      -2.159  -1.148   1.481  1.00  0.00    +0.000 C 
ATOM      3  O   UNL     1      -3.298  -0.333   1.181  1.00  0.00    +0.000 OA
ATOM      4  C   UNL     1      -3.533  -0.212  -0.164  1.00  0.00    +0.000 A 
ATOM      5  C   UNL     1      -4.827   0.158  -0.534  1.00  0.00    +0.000 A 
ATOM      6  C   UNL     1      -5.140   0.286  -1.885  1.00  0.00    +0.000 A 
ATOM      7  C   UNL     1      -4.182   0.057  -2.868  1.00  0.00    +0.000 A 
ATOM      8  C   UNL     1      -2.887  -0.294  -2.495  1.00  0.00    +0.000 A 
ATOM      9  C   UNL     1      -2.556  -0.418  -1.141  1.00  0.00    +0.000 A 
ATOM     10  C   UNL     1      -1.181  -0.738  -0.706  1.00  0.00    +0.000 C 
ATOM     11  O   UNL     1      -0.339  -1.024  -1.554  1.00  0.00    +0.000 OA
ENDROOT
BRANCH   6  12
ATOM     12  O   UNL     1      -6.394   0.637  -2.291  1.00  0.00    +0.000 OA
ATOM     13  H   UNL     1      -6.952   0.782  -1.510  1.00  0.00    +0.000 HD
ENDBRANCH   6  12
BRANCH   8  14
ATOM     14  O   UNL     1      -1.985  -0.494  -3.505  1.00  0.00    +0.000 OA
ATOM     15  H   UNL     1      -1.124  -0.743  -3.100  1.00  0.00    +0.000 HD
ENDBRANCH   8  14
BRANCH   1  16
ATOM     16  C   UNL     1       0.323  -1.450   1.204  1.00  0.00    +0.000 C 
BRANCH  16  20
ATOM     17  C   UNL     1       3.960   0.899   1.050  1.00  0.00    +0.000 A 
ATOM     18  C   UNL     1       3.618   0.068  -0.016  1.00  0.00    +0.000 A 
ATOM     19  C   UNL     1       2.444  -0.695   0.038  1.00  0.00    +0.000 A 
ATOM     20  C   UNL     1       1.598  -0.640   1.155  1.00  0.00    +0.000 A 
ATOM     21  C   UNL     1       1.943   0.197   2.223  1.00  0.00    +0.000 A 
ATOM     22  C   UNL     1       3.110   0.949   2.160  1.00  0.00    +0.000 A 
BRANCH  17  24
ATOM     23  C   UNL     1       5.949   1.679   0.012  1.00  0.00    +0.000 C 
ATOM     24  O   UNL     1       5.071   1.698   1.132  1.00  0.00    +0.000 OA
ENDBRANCH  17  24
BRANCH  22  25
ATOM     25  O   UNL     1       3.415   1.756   3.223  1.00  0.00    +0.000 OA
ATOM     26  H   UNL     1       4.257   2.185   2.975  1.00  0.00    +0.000 HD
ENDBRANCH  22  25
ENDBRANCH  16  20
ENDBRANCH   1  16
TORSDOF 6
