REMARK  Name = SANCDB_01113_minRM1.pdb
AUTHORGENERATED BY OPEN BABEL 2.3.2
REMARK  5 active torsions:
REMARK  status: ('A' for Active; 'I' for Inactive)
REMARK    1  A    between atoms: C_1  and  C_2
REMARK    2  A    between atoms: C_2  and  C_4
REMARK    3  A    between atoms: C_6  and  O_21
REMARK    4  A    between atoms: C_7  and  C_20
REMARK    5  A    between atoms: C_13  and  O_18
REMARK                            x       y       z     vdW  Elec       q    Type
REMARK                         _______ _______ _______ _____ _____    ______ ____
ROOT
ATOM      1  C   UNL     1       1.809   0.000  -0.643  1.00  0.00    +0.000 C 
ATOM      2  C   UNL     1       0.744   0.959  -1.169  1.00  0.00    +0.000 C 
ATOM      3  C   UNL     1      -0.280   1.320  -0.074  1.00  0.00    +0.000 C 
ATOM      4  C   UNL     1      -1.135   0.128   0.446  1.00  0.00    +0.000 C 
ATOM      5  C   UNL     1      -2.328  -0.350  -0.427  1.00  0.00    +0.000 C 
ATOM      6  C   UNL     1      -2.990   0.437  -1.546  1.00  0.00    +0.000 C 
ATOM      7  O   UNL     1      -3.558   0.372  -0.237  1.00  0.00    +0.000 OA
ATOM      8  C   UNL     1      -2.438  -1.859  -0.307  1.00  0.00    +0.000 C 
ATOM      9  C   UNL     1      -1.163  -2.386   0.274  1.00  0.00    +0.000 C 
ATOM     10  C   UNL     1      -0.222  -1.209   0.522  1.00  0.00    +0.000 C 
ATOM     11  C   UNL     1       0.920  -1.244  -0.535  1.00  0.00    +0.000 C 
ATOM     12  C   UNL     1       0.278  -1.136  -1.899  1.00  0.00    +0.000 C 
ATOM     13  O   UNL     1      -0.116  -2.059  -2.589  1.00  0.00    +0.000 OA
ATOM     14  O   UNL     1       0.129   0.191  -2.217  1.00  0.00    +0.000 OA
ATOM     15  O   UNL     1      -2.375  -2.404   1.026  1.00  0.00    +0.000 OA
ATOM     16  C   UNL     1      -1.679   0.539   1.843  1.00  0.00    +0.000 C 
ENDROOT
BRANCH   1  18
ATOM     17  C   UNL     1       3.266   1.865   0.363  1.00  0.00    +0.000 C 
ATOM     18  C   UNL     1       2.699   0.472   0.490  1.00  0.00    +0.000 C 
ATOM     19  C   UNL     1       3.082  -0.306   1.515  1.00  0.00    +0.000 C 
ENDBRANCH   1  18
BRANCH  10  20
ATOM     20  O   UNL     1       0.327  -1.394   1.823  1.00  0.00    +0.000 OA
ATOM     21  H   UNL     1      -0.404  -1.673   2.408  1.00  0.00    +0.000 HD
ENDBRANCH  10  20
BRANCH   3  22
ATOM     22  O   UNL     1      -1.089   2.424  -0.478  1.00  0.00    +0.000 OA
ATOM     23  H   UNL     1      -0.516   3.200  -0.608  1.00  0.00    +0.000 HD
ENDBRANCH   3  22
TORSDOF 3
