REMARK  Name = SANCDB_00946_minRM1.pdb
AUTHORGENERATED BY OPEN BABEL 2.3.2
REMARK  10 active torsions:
REMARK  status: ('A' for Active; 'I' for Inactive)
REMARK    1  A    between atoms: C_1  and  C_2
REMARK    2  A    between atoms: C_2  and  C_3
REMARK    3  A    between atoms: C_7  and  C_19
REMARK    4  A    between atoms: C_8  and  N_9
REMARK    5  A    between atoms: N_9  and  C_10
REMARK    6  A    between atoms: C_10  and  C_11
REMARK    7  A    between atoms: C_10  and  C_12
REMARK    8  A    between atoms: C_12  and  O_13
REMARK    9  A    between atoms: O_13  and  C_14
REMARK   10  A    between atoms: C_15  and  C_17
REMARK                            x       y       z     vdW  Elec       q    Type
REMARK                         _______ _______ _______ _____ _____    ______ ____
ROOT
ATOM      1  N   UNL     1       0.286  -0.357  -0.865  1.00  0.00    +0.000 N 
ATOM      2  C   UNL     1       0.312  -1.285  -1.915  1.00  0.00    +0.000 C 
ATOM      3  O   UNL     1       1.357  -1.567  -2.508  1.00  0.00    +0.000 OA
ENDROOT
BRANCH   1   9
ATOM      4  C   UNL     1      -1.632   0.875   0.049  1.00  0.00    +0.000 A 
ATOM      5  C   UNL     1      -2.699   0.955   0.962  1.00  0.00    +0.000 A 
ATOM      6  C   UNL     1      -2.967  -0.086   1.843  1.00  0.00    +0.000 A 
ATOM      7  C   UNL     1      -2.176  -1.229   1.821  1.00  0.00    +0.000 A 
ATOM      8  C   UNL     1      -1.096  -1.348   0.928  1.00  0.00    +0.000 A 
ATOM      9  C   UNL     1      -0.811  -0.279   0.046  1.00  0.00    +0.000 A 
ATOM     10  C   UNL     1      -0.302  -2.626   1.012  1.00  0.00    +0.000 C 
BRANCH   4  12
ATOM     11  C   UNL     1      -0.892   3.272  -0.301  1.00  0.00    +0.000 C 
ATOM     12  C   UNL     1      -1.475   2.016  -0.934  1.00  0.00    +0.000 C 
ENDBRANCH   4  12
ENDBRANCH   1   9
BRANCH   1  13
ATOM     13  C   UNL     1       1.520   0.380  -0.469  1.00  0.00    +0.000 C 
ATOM     14  C   UNL     1       2.111   1.189  -1.633  1.00  0.00    +0.000 C 
BRANCH  13  15
ATOM     15  C   UNL     1       2.620  -0.523   0.145  1.00  0.00    +0.000 C 
BRANCH  15  16
ATOM     16  O   UNL     1       2.277  -1.046   1.434  1.00  0.00    +0.000 OA
ATOM     17  C   UNL     1       2.399  -0.101   2.487  1.00  0.00    +0.000 C 
ENDBRANCH  15  16
ENDBRANCH  13  15
ENDBRANCH   1  13
BRANCH   2  18
ATOM     18  C   UNL     1      -1.018  -1.926  -2.306  1.00  0.00    +0.000 C 
ATOM     19 CL   UNL     1      -1.126  -2.077  -4.079  1.00  0.00    +0.000 Cl
ENDBRANCH   2  18
TORSDOF 6
