REMARK  Name = /srv/my_project/app/compsite/backup/Dave/CORINA_stuff/newPDBs/SANC00242.pdb
AUTHORGENERATED BY OPEN BABEL 2.3.2
REMARK  7 active torsions:
REMARK  status: ('A' for Active; 'I' for Inactive)
REMARK    1  A    between atoms: C_1  and  O_2
REMARK    2  A    between atoms: O_2  and  C_3
REMARK    3  A    between atoms: C_6  and  C_7
REMARK    4  A    between atoms: C_7  and  C_8
REMARK    5  A    between atoms: C_8  and  O_9
REMARK    6  A    between atoms: C_14  and  O_15
REMARK    7  A    between atoms: C_17  and  O_18
REMARK                            x       y       z     vdW  Elec       q    Type
REMARK                         _______ _______ _______ _____ _____    ______ ____
ROOT
ATOM      1  C   UNL     1      -0.590  -1.087  -0.688  1.00  0.00    +0.000 C 
ATOM      2  C   UNL     1      -1.605  -1.874  -1.535  1.00  0.00    +0.000 C 
ATOM      3  O   UNL     1      -2.962  -1.734  -1.090  1.00  0.00    +0.000 OA
ATOM      4  C   UNL     1      -3.341  -0.461  -0.760  1.00  0.00    +0.000 A 
ATOM      5  C   UNL     1      -4.710  -0.290  -0.539  1.00  0.00    +0.000 A 
ATOM      6  C   UNL     1      -5.197   0.966  -0.196  1.00  0.00    +0.000 A 
ATOM      7  C   UNL     1      -4.340   2.052  -0.060  1.00  0.00    +0.000 A 
ATOM      8  C   UNL     1      -2.971   1.878  -0.268  1.00  0.00    +0.000 A 
ATOM      9  C   UNL     1      -2.465   0.621  -0.623  1.00  0.00    +0.000 A 
ATOM     10  C   UNL     1      -1.025   0.369  -0.860  1.00  0.00    +0.000 C 
ATOM     11  O   UNL     1      -0.265   1.264  -1.211  1.00  0.00    +0.000 OA
ENDROOT
BRANCH   1  12
ATOM     12  O   UNL     1      -0.702  -1.515   0.673  1.00  0.00    +0.000 OA
ATOM     13  H   UNL     1      -0.090  -0.962   1.195  1.00  0.00    +0.000 HD
ENDBRANCH   1  12
BRANCH   6  14
ATOM     14  O   UNL     1      -6.526   1.177   0.025  1.00  0.00    +0.000 OA
ATOM     15  H   UNL     1      -7.001   0.335  -0.080  1.00  0.00    +0.000 HD
ENDBRANCH   6  14
BRANCH   8  16
ATOM     16  O   UNL     1      -2.135   2.942  -0.086  1.00  0.00    +0.000 OA
ATOM     17  H   UNL     1      -2.653   3.745   0.089  1.00  0.00    +0.000 HD
ENDBRANCH   8  16
BRANCH   1  18
ATOM     18  C   UNL     1       0.833  -1.365  -1.232  1.00  0.00    +0.000 C 
BRANCH  18  22
ATOM     19  C   UNL     1       4.086  -0.244   1.406  1.00  0.00    +0.000 A 
ATOM     20  C   UNL     1       3.490  -1.502   1.506  1.00  0.00    +0.000 A 
ATOM     21  C   UNL     1       2.445  -1.865   0.654  1.00  0.00    +0.000 A 
ATOM     22  C   UNL     1       1.976  -0.971  -0.318  1.00  0.00    +0.000 A 
ATOM     23  C   UNL     1       2.581   0.286  -0.417  1.00  0.00    +0.000 A 
ATOM     24  C   UNL     1       3.627   0.649   0.440  1.00  0.00    +0.000 A 
BRANCH  19  26
ATOM     25  C   UNL     1       5.728   1.256   2.241  1.00  0.00    +0.000 C 
ATOM     26  O   UNL     1       5.095  -0.015   2.301  1.00  0.00    +0.000 OA
ENDBRANCH  19  26
ENDBRANCH  18  22
ENDBRANCH   1  18
TORSDOF 6
