REMARK  Name = /srv/my_project/app/compsite/backup/Dave/CORINA_stuff/newPDBs/SANC00117.pdb
AUTHORGENERATED BY OPEN BABEL 2.3.2
REMARK  12 active torsions:
REMARK  status: ('A' for Active; 'I' for Inactive)
REMARK    1  A    between atoms: C_3  and  C_5
REMARK    2  A    between atoms: C_5  and  O_6
REMARK    3  A    between atoms: O_6  and  C_7
REMARK    4  A    between atoms: C_7  and  C_9
REMARK    5  A    between atoms: C_9  and  C_12
REMARK    6  A    between atoms: C_10  and  C_11
REMARK    7  A    between atoms: C_12  and  O_13
REMARK    8  A    between atoms: C_19  and  O_21
REMARK    9  A    between atoms: O_21  and  C_22
REMARK   10  A    between atoms: C_22  and  C_24
REMARK   11  A    between atoms: C_24  and  C_25
REMARK   12  A    between atoms: C_26  and  C_27
REMARK                            x       y       z     vdW  Elec       q    Type
REMARK                         _______ _______ _______ _____ _____    ______ ____
ROOT
ATOM      1  C   UNL     1      -0.632   0.580   2.160  1.00  0.00    +0.000 C 
ATOM      2  C   UNL     1       0.549   0.539   1.202  1.00  0.00    +0.000 C 
ATOM      3  C   UNL     1       0.402   1.793   0.342  1.00  0.00    +0.000 C 
ATOM      4  C   UNL     1      -0.573   2.691   1.099  1.00  0.00    +0.000 C 
ATOM      5  N   UNL     1      -0.837   2.029   2.386  1.00  0.00    +0.000 NA
ATOM      6  C   UNL     1      -2.230   2.188   2.828  1.00  0.00    +0.000 C 
ATOM      7  C   UNL     1      -2.947   0.857   2.597  1.00  0.00    +0.000 C 
ATOM      8  C   UNL     1      -2.001   0.036   1.730  1.00  0.00    +0.000 C 
ENDROOT
BRANCH   2   9
ATOM      9  C   UNL     1       0.700  -0.754   0.408  1.00  0.00    +0.000 C 
BRANCH   9  10
ATOM     10  O   UNL     1       1.899  -0.711  -0.386  1.00  0.00    +0.000 OA
BRANCH  10  11
ATOM     11  C   UNL     1       3.029  -1.146   0.224  1.00  0.00    +0.000 C 
ATOM     12  O   UNL     1       3.106  -1.557   1.374  1.00  0.00    +0.000 OA
BRANCH  11  13
ATOM     13  C   UNL     1       4.222  -1.041  -0.668  1.00  0.00    +0.000 C 
ATOM     14  C   UNL     1       4.081  -0.882  -2.001  1.00  0.00    +0.000 C 
ATOM     15  C   UNL     1       5.170  -0.790  -3.023  1.00  0.00    +0.000 C 
BRANCH  13  16
ATOM     16  C   UNL     1       5.521  -1.116   0.082  1.00  0.00    +0.000 C 
BRANCH  16  17
ATOM     17  O   UNL     1       5.750  -2.445   0.534  1.00  0.00    +0.000 OA
ATOM     18  H   UNL     1       5.048  -2.632   1.188  1.00  0.00    +0.000 HD
ENDBRANCH  16  17
ENDBRANCH  13  16
ENDBRANCH  11  13
ENDBRANCH  10  11
ENDBRANCH   9  10
ENDBRANCH   2   9
BRANCH   8  19
ATOM     19  O   UNL     1      -2.265   0.284   0.339  1.00  0.00    +0.000 OA
BRANCH  19  20
ATOM     20  C   UNL     1      -3.271  -0.449  -0.202  1.00  0.00    +0.000 C 
ATOM     21  O   UNL     1      -3.950  -1.276   0.383  1.00  0.00    +0.000 OA
BRANCH  20  22
ATOM     22  C   UNL     1      -3.424  -0.078  -1.635  1.00  0.00    +0.000 C 
ATOM     23  C   UNL     1      -3.331   1.384  -1.957  1.00  0.00    +0.000 C 
ATOM     24  C   UNL     1      -3.690  -1.006  -2.575  1.00  0.00    +0.000 C 
ATOM     25  C   UNL     1      -3.790  -2.489  -2.398  1.00  0.00    +0.000 C 
ENDBRANCH  20  22
ENDBRANCH  19  20
ENDBRANCH   8  19
TORSDOF 9
