REMARK  Name = SANCDB_01089_minRM1.pdb
AUTHORGENERATED BY OPEN BABEL 2.3.2
REMARK  13 active torsions:
REMARK  status: ('A' for Active; 'I' for Inactive)
REMARK    1  A    between atoms: C_1  and  C_2
REMARK    2  A    between atoms: C_3  and  O_34
REMARK    3  A    between atoms: C_4  and  O_33
REMARK    4  A    between atoms: C_5  and  O_32
REMARK    5  A    between atoms: C_6  and  O_8
REMARK    6  A    between atoms: O_8  and  C_9
REMARK    7  A    between atoms: C_10  and  C_22
REMARK    8  A    between atoms: C_14  and  O_21
REMARK    9  A    between atoms: C_16  and  O_20
REMARK   10  A    between atoms: C_24  and  O_31
REMARK   11  A    between atoms: C_25  and  O_29
REMARK   12  A    between atoms: C_26  and  O_28
REMARK   13  A    between atoms: O_29  and  C_30
REMARK                            x       y       z     vdW  Elec       q    Type
REMARK                         _______ _______ _______ _____ _____    ______ ____
ROOT
ATOM      1  C   UNL     1      -0.081   1.011   0.606  1.00  0.00    +0.000 A 
ATOM      2  C   UNL     1      -1.359   0.758   0.267  1.00  0.00    +0.000 A 
ATOM      3  O   UNL     1      -2.240   1.692  -0.254  1.00  0.00    +0.000 OA
ATOM      4  C   UNL     1      -1.800   2.975  -0.445  1.00  0.00    +0.000 A 
ATOM      5  C   UNL     1      -2.710   3.880  -0.992  1.00  0.00    +0.000 A 
ATOM      6  C   UNL     1      -2.323   5.200  -1.204  1.00  0.00    +0.000 A 
ATOM      7  C   UNL     1      -1.041   5.631  -0.877  1.00  0.00    +0.000 A 
ATOM      8  C   UNL     1      -0.137   4.723  -0.330  1.00  0.00    +0.000 A 
ATOM      9  C   UNL     1      -0.514   3.392  -0.115  1.00  0.00    +0.000 A 
ATOM     10  C   UNL     1       0.412   2.406   0.456  1.00  0.00    +0.000 A 
ATOM     11  O   UNL     1       1.549   2.735   0.791  1.00  0.00    +0.000 OA
ENDROOT
BRANCH   2  12
ATOM     12  C   UNL     1      -1.977  -0.566   0.443  1.00  0.00    +0.000 A 
ATOM     13  C   UNL     1      -1.540  -1.674  -0.300  1.00  0.00    +0.000 A 
ATOM     14  C   UNL     1      -2.151  -2.912  -0.126  1.00  0.00    +0.000 A 
ATOM     15  C   UNL     1      -3.214  -3.058   0.761  1.00  0.00    +0.000 A 
ATOM     16  C   UNL     1      -3.629  -1.968   1.522  1.00  0.00    +0.000 A 
ATOM     17  C   UNL     1      -3.031  -0.722   1.358  1.00  0.00    +0.000 A 
BRANCH  16  18
ATOM     18  O   UNL     1      -4.625  -2.095   2.447  1.00  0.00    +0.000 OA
ATOM     19  H   UNL     1      -4.797  -3.051   2.529  1.00  0.00    +0.000 HD
ENDBRANCH  16  18
BRANCH  15  20
ATOM     20  O   UNL     1      -3.822  -4.278   0.919  1.00  0.00    +0.000 OA
ATOM     21  C   UNL     1      -4.905  -4.396  -0.011  1.00  0.00    +0.000 C 
ENDBRANCH  15  20
BRANCH  14  22
ATOM     22  O   UNL     1      -1.682  -3.976  -0.842  1.00  0.00    +0.000 OA
ATOM     23  H   UNL     1      -2.092  -4.769  -0.449  1.00  0.00    +0.000 HD
ENDBRANCH  14  22
ENDBRANCH   2  12
BRANCH   8  24
ATOM     24  O   UNL     1       1.106   5.208  -0.027  1.00  0.00    +0.000 OA
ATOM     25  H   UNL     1       1.636   4.484   0.373  1.00  0.00    +0.000 HD
ENDBRANCH   8  24
BRANCH   6  26
ATOM     26  O   UNL     1      -3.243   6.051  -1.741  1.00  0.00    +0.000 OA
ATOM     27  H   UNL     1      -2.844   6.933  -1.829  1.00  0.00    +0.000 HD
ENDBRANCH   6  26
BRANCH   1  28
ATOM     28  O   UNL     1       0.740   0.066   1.193  1.00  0.00    +0.000 OA
BRANCH  28  34
ATOM     29  C   UNL     1       2.664  -1.642  -2.325  1.00  0.00    +0.000 C 
ATOM     30  C   UNL     1       2.957  -1.964  -0.862  1.00  0.00    +0.000 C 
ATOM     31  C   UNL     1       4.300  -1.371  -0.400  1.00  0.00    +0.000 C 
ATOM     32  C   UNL     1       4.235  -1.085   1.100  1.00  0.00    +0.000 C 
ATOM     33  C   UNL     1       3.146  -0.045   1.387  1.00  0.00    +0.000 C 
ATOM     34  C   UNL     1       1.932  -0.220   0.440  1.00  0.00    +0.000 C 
ATOM     35  O   UNL     1       1.849  -1.560  -0.043  1.00  0.00    +0.000 OA
BRANCH  33  36
ATOM     36  O   UNL     1       3.743   1.262   1.219  1.00  0.00    +0.000 OA
ATOM     37  H   UNL     1       3.011   1.918   1.284  1.00  0.00    +0.000 HD
ENDBRANCH  33  36
BRANCH  32  38
ATOM     38  O   UNL     1       5.520  -0.612   1.541  1.00  0.00    +0.000 OA
ATOM     39  H   UNL     1       5.441   0.367   1.533  1.00  0.00    +0.000 HD
ENDBRANCH  32  38
BRANCH  31  40
ATOM     40  O   UNL     1       5.371  -2.277  -0.682  1.00  0.00    +0.000 OA
ATOM     41  H   UNL     1       6.097  -2.009  -0.082  1.00  0.00    +0.000 HD
ENDBRANCH  31  40
ENDBRANCH  28  34
ENDBRANCH   1  28
TORSDOF 11
