REMARK  Name = /srv/my_project/app/compsite/backup/Dave/CORINA_stuff/newPDBs/SANC00245.pdb
AUTHORGENERATED BY OPEN BABEL 2.3.2
REMARK  7 active torsions:
REMARK  status: ('A' for Active; 'I' for Inactive)
REMARK    1  A    between atoms: C_1  and  O_2
REMARK    2  A    between atoms: O_2  and  C_3
REMARK    3  A    between atoms: C_4  and  O_5
REMARK    4  A    between atoms: C_10  and  C_12
REMARK    5  A    between atoms: C_12  and  C_13
REMARK    6  A    between atoms: C_16  and  O_17
REMARK    7  A    between atoms: C_23  and  O_24
REMARK                            x       y       z     vdW  Elec       q    Type
REMARK                         _______ _______ _______ _____ _____    ______ ____
ROOT
ATOM      1  C   UNL     1       3.417  -0.935   0.911  1.00  0.00    +0.000 A 
ATOM      2  C   UNL     1       3.619  -1.621  -0.298  1.00  0.00    +0.000 A 
ATOM      3  C   UNL     1       2.803  -1.390  -1.405  1.00  0.00    +0.000 A 
ATOM      4  C   UNL     1       1.752  -0.483  -1.303  1.00  0.00    +0.000 A 
ATOM      5  O   UNL     1       0.992  -0.310  -2.431  1.00  0.00    +0.000 OA
ATOM      6  C   UNL     1      -0.344   0.109  -2.125  1.00  0.00    +0.000 C 
ATOM      7  C   UNL     1      -0.337   1.423  -1.356  1.00  0.00    +0.000 C 
ATOM      8  C   UNL     1       0.443   1.212  -0.075  1.00  0.00    +0.000 C 
ATOM      9  O   UNL     1       0.269   1.875   0.946  1.00  0.00    +0.000 OA
ATOM     10  C   UNL     1       1.533   0.211  -0.109  1.00  0.00    +0.000 A 
ATOM     11  C   UNL     1       2.358  -0.018   1.006  1.00  0.00    +0.000 A 
ENDROOT
BRANCH   1  13
ATOM     12  C   UNL     1       4.735  -0.177   2.717  1.00  0.00    +0.000 C 
ATOM     13  O   UNL     1       4.260  -1.271   1.940  1.00  0.00    +0.000 OA
ENDBRANCH   1  13
BRANCH   2  14
ATOM     14  O   UNL     1       4.648  -2.521  -0.392  1.00  0.00    +0.000 OA
ATOM     15  H   UNL     1       4.626  -2.952  -1.260  1.00  0.00    +0.000 HD
ENDBRANCH   2  14
BRANCH  11  16
ATOM     16  O   UNL     1       2.134   0.629   2.196  1.00  0.00    +0.000 OA
ATOM     17  H   UNL     1       1.380   1.250   2.081  1.00  0.00    +0.000 HD
ENDBRANCH  11  16
BRANCH   7  18
ATOM     18  C   UNL     1      -1.739   2.007  -1.122  1.00  0.00    +0.000 C 
BRANCH  18  19
ATOM     19  C   UNL     1      -2.769   1.040  -0.583  1.00  0.00    +0.000 A 
ATOM     20  C   UNL     1      -2.836   0.755   0.788  1.00  0.00    +0.000 A 
ATOM     21  C   UNL     1      -3.775  -0.155   1.277  1.00  0.00    +0.000 A 
ATOM     22  C   UNL     1      -4.654  -0.777   0.400  1.00  0.00    +0.000 A 
ATOM     23  C   UNL     1      -4.612  -0.504  -0.962  1.00  0.00    +0.000 A 
ATOM     24  C   UNL     1      -3.671   0.405  -1.452  1.00  0.00    +0.000 A 
BRANCH  22  25
ATOM     25  O   UNL     1      -5.555  -1.658   0.921  1.00  0.00    +0.000 OA
ATOM     26  H   UNL     1      -6.112  -1.996   0.202  1.00  0.00    +0.000 HD
ENDBRANCH  22  25
ENDBRANCH  18  19
ENDBRANCH   7  18
TORSDOF 6
