REMARK  Name = SANCDB_01111_minRM1.pdb
AUTHORGENERATED BY OPEN BABEL 2.3.2
REMARK  10 active torsions:
REMARK  status: ('A' for Active; 'I' for Inactive)
REMARK    1  A    between atoms: C_1  and  C_2
REMARK    2  A    between atoms: C_5  and  C_31
REMARK    3  A    between atoms: C_5  and  C_32
REMARK    4  A    between atoms: C_8  and  C_30
REMARK    5  A    between atoms: C_12  and  C_29
REMARK    6  A    between atoms: C_15  and  O_27
REMARK    7  A    between atoms: C_16  and  C_25
REMARK    8  A    between atoms: C_16  and  C_26
REMARK    9  A    between atoms: C_20  and  C_24
REMARK   10  A    between atoms: O_27  and  C_28
REMARK                            x       y       z     vdW  Elec       q    Type
REMARK                         _______ _______ _______ _____ _____    ______ ____
ROOT
ATOM      1  C   UNL     1      -4.627  -2.477  -0.137  1.00  0.00    +0.000 C 
ATOM      2  C   UNL     1      -3.988  -1.295   0.649  1.00  0.00    +0.000 C 
ATOM      3  C   UNL     1      -5.096  -0.624   1.493  1.00  0.00    +0.000 C 
ATOM      4  C   UNL     1      -6.127   0.137   0.671  1.00  0.00    +0.000 C 
ATOM      5  C   UNL     1      -5.495   1.248  -0.176  1.00  0.00    +0.000 C 
ATOM      6  C   UNL     1      -4.325   0.696  -1.025  1.00  0.00    +0.000 C 
ATOM      7  C   UNL     1      -3.330  -0.329  -0.404  1.00  0.00    +0.000 C 
ATOM      8  C   UNL     1      -1.867   0.184  -0.054  1.00  0.00    +0.000 C 
ATOM      9  C   UNL     1      -1.253   0.871  -1.301  1.00  0.00    +0.000 C 
ATOM     10  C   UNL     1       0.231   1.222  -1.191  1.00  0.00    +0.000 C 
ATOM     11  C   UNL     1       1.077   0.255  -0.330  1.00  0.00    +0.000 C 
ATOM     12  C   UNL     1       2.640   0.336  -0.623  1.00  0.00    +0.000 C 
ATOM     13  C   UNL     1       3.110   1.822  -0.461  1.00  0.00    +0.000 C 
ATOM     14  C   UNL     1       4.386   2.023   0.362  1.00  0.00    +0.000 C 
ATOM     15  C   UNL     1       5.462   0.980   0.066  1.00  0.00    +0.000 C 
ATOM     16  C   UNL     1       4.958  -0.460   0.438  1.00  0.00    +0.000 C 
ATOM     17  C   UNL     1       3.378  -0.546   0.442  1.00  0.00    +0.000 C 
ATOM     18  C   UNL     1       2.833  -1.985   0.457  1.00  0.00    +0.000 C 
ATOM     19  C   UNL     1       1.331  -2.025   0.737  1.00  0.00    +0.000 C 
ATOM     20  C   UNL     1       0.448  -1.175  -0.227  1.00  0.00    +0.000 C 
ATOM     21  C   UNL     1      -1.010  -1.049   0.325  1.00  0.00    +0.000 C 
ATOM     22  C   UNL     1      -1.569  -1.998   1.103  1.00  0.00    +0.000 C 
ATOM     23  C   UNL     1      -2.959  -1.901   1.640  1.00  0.00    +0.000 C 
ATOM     24  C   UNL     1       0.352  -1.920  -1.581  1.00  0.00    +0.000 C 
ATOM     25  C   UNL     1       5.444  -0.747   1.889  1.00  0.00    +0.000 C 
ATOM     26  C   UNL     1       5.628  -1.528  -0.455  1.00  0.00    +0.000 C 
ATOM     27  C   UNL     1       2.962  -0.114  -2.070  1.00  0.00    +0.000 C 
ATOM     28  C   UNL     1      -1.870   1.197   1.106  1.00  0.00    +0.000 C 
ATOM     29  C   UNL     1      -6.572   1.804  -1.137  1.00  0.00    +0.000 C 
ATOM     30  C   UNL     1      -5.053   2.422   0.715  1.00  0.00    +0.000 C 
ENDROOT
BRANCH  15  31
ATOM     31  O   UNL     1       5.854   1.039  -1.310  1.00  0.00    +0.000 OA
ATOM     32  C   UNL     1       6.731   2.112  -1.619  1.00  0.00    +0.000 C 
ENDBRANCH  15  31
TORSDOF 1
