REMARK  Name = SANCDB_00997_minRM1.pdb
AUTHORGENERATED BY OPEN BABEL 2.3.2
REMARK  12 active torsions:
REMARK  status: ('A' for Active; 'I' for Inactive)
REMARK    1  A    between atoms: C_2  and  O_22
REMARK    2  A    between atoms: C_3  and  C_13
REMARK    3  A    between atoms: C_7  and  O_12
REMARK    4  A    between atoms: C_9  and  O_11
REMARK    5  A    between atoms: C_15  and  O_21
REMARK    6  A    between atoms: C_16  and  O_20
REMARK    7  A    between atoms: C_17  and  O_19
REMARK    8  A    between atoms: O_22  and  C_23
REMARK    9  A    between atoms: C_23  and  C_25
REMARK   10  A    between atoms: C_27  and  O_33
REMARK   11  A    between atoms: C_28  and  O_32
REMARK   12  A    between atoms: C_29  and  O_31
REMARK                            x       y       z     vdW  Elec       q    Type
REMARK                         _______ _______ _______ _____ _____    ______ ____
ROOT
ATOM      1  C   UNL     1      -0.266  -1.829   0.346  1.00  0.00    +0.000 C 
ATOM      2  C   UNL     1      -0.053  -0.655   1.303  1.00  0.00    +0.000 C 
ATOM      3  C   UNL     1      -1.307   0.246   1.306  1.00  0.00    +0.000 C 
ATOM      4  O   UNL     1      -2.418  -0.515   1.831  1.00  0.00    +0.000 OA
ATOM      5  C   UNL     1      -2.623  -1.734   1.232  1.00  0.00    +0.000 A 
ATOM      6  C   UNL     1      -3.890  -2.287   1.425  1.00  0.00    +0.000 A 
ATOM      7  C   UNL     1      -4.203  -3.509   0.847  1.00  0.00    +0.000 A 
ATOM      8  C   UNL     1      -3.266  -4.189   0.081  1.00  0.00    +0.000 A 
ATOM      9  C   UNL     1      -1.996  -3.639  -0.095  1.00  0.00    +0.000 A 
ATOM     10  C   UNL     1      -1.644  -2.414   0.490  1.00  0.00    +0.000 A 
ENDROOT
BRANCH   3  11
ATOM     11  C   UNL     1      -1.739   0.988   0.036  1.00  0.00    +0.000 A 
ATOM     12  C   UNL     1      -0.877   1.220  -1.051  1.00  0.00    +0.000 A 
ATOM     13  C   UNL     1      -1.323   1.920  -2.168  1.00  0.00    +0.000 A 
ATOM     14  C   UNL     1      -2.616   2.413  -2.224  1.00  0.00    +0.000 A 
ATOM     15  C   UNL     1      -3.479   2.214  -1.158  1.00  0.00    +0.000 A 
ATOM     16  C   UNL     1      -3.050   1.517  -0.031  1.00  0.00    +0.000 A 
BRANCH  15  17
ATOM     17  O   UNL     1      -4.745   2.720  -1.259  1.00  0.00    +0.000 OA
ATOM     18  H   UNL     1      -5.239   2.455  -0.463  1.00  0.00    +0.000 HD
ENDBRANCH  15  17
BRANCH  14  19
ATOM     19  O   UNL     1      -3.024   3.097  -3.336  1.00  0.00    +0.000 OA
ATOM     20  H   UNL     1      -3.952   3.339  -3.138  1.00  0.00    +0.000 HD
ENDBRANCH  14  19
BRANCH  13  21
ATOM     21  O   UNL     1      -0.468   2.119  -3.214  1.00  0.00    +0.000 OA
ATOM     22  H   UNL     1      -0.991   2.634  -3.861  1.00  0.00    +0.000 HD
ENDBRANCH  13  21
ENDBRANCH   3  11
BRANCH   9  23
ATOM     23  O   UNL     1      -1.136  -4.372  -0.864  1.00  0.00    +0.000 OA
ATOM     24  H   UNL     1      -0.318  -3.872  -1.015  1.00  0.00    +0.000 HD
ENDBRANCH   9  23
BRANCH   7  25
ATOM     25  O   UNL     1      -5.455  -4.010   1.050  1.00  0.00    +0.000 OA
ATOM     26  H   UNL     1      -5.521  -4.867   0.596  1.00  0.00    +0.000 HD
ENDBRANCH   7  25
BRANCH   2  27
ATOM     27  O   UNL     1       1.128   0.108   0.991  1.00  0.00    +0.000 OA
BRANCH  27  28
ATOM     28  C   UNL     1       2.312  -0.451   1.335  1.00  0.00    +0.000 C 
ATOM     29  O   UNL     1       2.460  -1.550   1.846  1.00  0.00    +0.000 OA
BRANCH  28  30
ATOM     30  C   UNL     1       3.446   0.452   1.004  1.00  0.00    +0.000 A 
ATOM     31  C   UNL     1       4.749  -0.015   1.261  1.00  0.00    +0.000 A 
ATOM     32  C   UNL     1       5.839   0.799   0.971  1.00  0.00    +0.000 A 
ATOM     33  C   UNL     1       5.641   2.065   0.433  1.00  0.00    +0.000 A 
ATOM     34  C   UNL     1       4.355   2.526   0.181  1.00  0.00    +0.000 A 
ATOM     35  C   UNL     1       3.251   1.731   0.460  1.00  0.00    +0.000 A 
BRANCH  34  36
ATOM     36  O   UNL     1       4.167   3.771  -0.343  1.00  0.00    +0.000 OA
ATOM     37  H   UNL     1       5.069   4.133  -0.462  1.00  0.00    +0.000 HD
ENDBRANCH  34  36
BRANCH  33  38
ATOM     38  O   UNL     1       6.706   2.874   0.145  1.00  0.00    +0.000 OA
ATOM     39  H   UNL     1       7.489   2.345   0.401  1.00  0.00    +0.000 HD
ENDBRANCH  33  38
BRANCH  32  40
ATOM     40  O   UNL     1       7.125   0.399   1.199  1.00  0.00    +0.000 OA
ATOM     41  H   UNL     1       7.109  -0.498   1.578  1.00  0.00    +0.000 HD
ENDBRANCH  32  40
ENDBRANCH  28  30
ENDBRANCH  27  28
ENDBRANCH   2  27
TORSDOF 12
