REMARK  Name = SANCDB_00768_minRM1.pdb
AUTHORGENERATED BY OPEN BABEL 2.3.2
REMARK  2 active torsions:
REMARK  status: ('A' for Active; 'I' for Inactive)
REMARK    1  A    between atoms: O_1  and  C_2
REMARK    2  A    between atoms: C_21  and  O_22
REMARK                            x       y       z     vdW  Elec       q    Type
REMARK                         _______ _______ _______ _____ _____    ______ ____
ROOT
ATOM      1  C   UNL     1       4.850   0.343  -0.309  1.00  0.00    +0.000 A 
ATOM      2  C   UNL     1       5.130   1.684  -0.049  1.00  0.00    +0.000 A 
ATOM      3  C   UNL     1       4.267   2.679  -0.521  1.00  0.00    +0.000 A 
ATOM      4  C   UNL     1       3.131   2.344  -1.272  1.00  0.00    +0.000 A 
ATOM      5  C   UNL     1       2.868   0.993  -1.532  1.00  0.00    +0.000 A 
ATOM      6  C   UNL     1       3.707  -0.004  -1.027  1.00  0.00    +0.000 A 
ATOM      7  O   UNL     1       3.425  -1.329  -1.283  1.00  0.00    +0.000 OA
ATOM      8  C   UNL     1       2.299  -1.795  -0.639  1.00  0.00    +0.000 A 
ATOM      9  C   UNL     1       1.196  -2.172  -1.404  1.00  0.00    +0.000 A 
ATOM     10  C   UNL     1       0.045  -2.650  -0.773  1.00  0.00    +0.000 A 
ATOM     11  C   UNL     1      -0.002  -2.770   0.623  1.00  0.00    +0.000 A 
ATOM     12  C   UNL     1       1.133  -2.426   1.373  1.00  0.00    +0.000 A 
ATOM     13  C   UNL     1       2.279  -1.940   0.746  1.00  0.00    +0.000 A 
ATOM     14  C   UNL     1      -1.231  -3.320   1.309  1.00  0.00    +0.000 C 
ATOM     15  C   UNL     1      -1.855  -2.372   2.342  1.00  0.00    +0.000 C 
ATOM     16  C   UNL     1      -3.099  -1.659   1.859  1.00  0.00    +0.000 A 
ATOM     17  C   UNL     1      -4.330  -2.341   1.907  1.00  0.00    +0.000 A 
ATOM     18  C   UNL     1      -5.520  -1.700   1.557  1.00  0.00    +0.000 A 
ATOM     19  C   UNL     1      -5.502  -0.362   1.177  1.00  0.00    +0.000 A 
ATOM     20  C   UNL     1      -4.292   0.321   1.118  1.00  0.00    +0.000 A 
ATOM     21  C   UNL     1      -3.082  -0.331   1.404  1.00  0.00    +0.000 A 
ATOM     22  O   UNL     1      -1.872   0.325   1.331  1.00  0.00    +0.000 OA
ATOM     23  C   UNL     1      -1.464   0.822   0.108  1.00  0.00    +0.000 A 
ATOM     24  C   UNL     1      -1.940   0.383  -1.129  1.00  0.00    +0.000 A 
ATOM     25  C   UNL     1      -1.519   1.013  -2.300  1.00  0.00    +0.000 A 
ATOM     26  C   UNL     1      -0.608   2.067  -2.241  1.00  0.00    +0.000 A 
ATOM     27  C   UNL     1      -0.075   2.482  -1.012  1.00  0.00    +0.000 A 
ATOM     28  C   UNL     1      -0.517   1.850   0.161  1.00  0.00    +0.000 A 
ATOM     29  C   UNL     1       0.934   3.607  -0.940  1.00  0.00    +0.000 C 
ATOM     30  C   UNL     1       2.201   3.415  -1.791  1.00  0.00    +0.000 C 
ENDROOT
BRANCH   1  31
ATOM     31  O   UNL     1       5.680  -0.639   0.154  1.00  0.00    +0.000 OA
ATOM     32  H   UNL     1       6.455  -0.226   0.567  1.00  0.00    +0.000 HD
ENDBRANCH   1  31
BRANCH  20  33
ATOM     33  O   UNL     1      -4.358   1.648   0.791  1.00  0.00    +0.000 OA
ATOM     34  H   UNL     1      -3.457   2.010   0.865  1.00  0.00    +0.000 HD
ENDBRANCH  20  33
TORSDOF 2
