REMARK  Name = SANCDB_00855_minRM1.pdb
AUTHORGENERATED BY OPEN BABEL 2.3.2
REMARK  6 active torsions:
REMARK  status: ('A' for Active; 'I' for Inactive)
REMARK    1  A    between atoms: C_1  and  C_2
REMARK    2  A    between atoms: C_2  and  C_25
REMARK    3  A    between atoms: C_11  and  O_12
REMARK    4  A    between atoms: C_15  and  C_18
REMARK    5  A    between atoms: C_21  and  O_24
REMARK    6  A    between atoms: C_25  and  O_26
REMARK                            x       y       z     vdW  Elec       q    Type
REMARK                         _______ _______ _______ _____ _____    ______ ____
ROOT
ATOM      1  C   UNL     1      -5.206  -1.633  -1.154  1.00  0.00    +0.000 C 
ATOM      2  C   UNL     1      -4.722  -0.309  -0.546  1.00  0.00    +0.000 C 
ATOM      3  C   UNL     1      -4.483  -0.507   0.934  1.00  0.00    +0.000 C 
ATOM      4  C   UNL     1      -3.270  -0.481   1.493  1.00  0.00    +0.000 C 
ATOM      5  C   UNL     1      -2.115  -0.254   0.634  1.00  0.00    +0.000 A 
ATOM      6  C   UNL     1      -2.326   0.022  -0.722  1.00  0.00    +0.000 A 
ATOM      7  O   UNL     1      -3.559   0.092  -1.307  1.00  0.00    +0.000 OA
ATOM      8  C   UNL     1      -1.246   0.269  -1.572  1.00  0.00    +0.000 A 
ATOM      9  C   UNL     1       0.056   0.233  -1.075  1.00  0.00    +0.000 A 
ATOM     10  C   UNL     1       0.283  -0.044   0.271  1.00  0.00    +0.000 A 
ATOM     11  C   UNL     1      -0.801  -0.286   1.129  1.00  0.00    +0.000 A 
ATOM     12  C   UNL     1       1.675  -0.072   0.754  1.00  0.00    +0.000 A 
ATOM     13  O   UNL     1       1.902  -0.318   1.935  1.00  0.00    +0.000 OA
ATOM     14  C   UNL     1       2.748   0.211  -0.238  1.00  0.00    +0.000 A 
ATOM     15  C   UNL     1       2.357   0.452  -1.498  1.00  0.00    +0.000 A 
ATOM     16  O   UNL     1       1.067   0.481  -1.968  1.00  0.00    +0.000 OA
ENDROOT
BRANCH  14  17
ATOM     17  C   UNL     1       4.178   0.199   0.118  1.00  0.00    +0.000 A 
ATOM     18  C   UNL     1       4.732  -0.897   0.795  1.00  0.00    +0.000 A 
ATOM     19  C   UNL     1       6.089  -0.916   1.125  1.00  0.00    +0.000 A 
ATOM     20  C   UNL     1       6.897   0.161   0.786  1.00  0.00    +0.000 A 
ATOM     21  C   UNL     1       6.370   1.263   0.121  1.00  0.00    +0.000 A 
ATOM     22  C   UNL     1       5.012   1.280  -0.211  1.00  0.00    +0.000 A 
BRANCH  20  23
ATOM     23  O   UNL     1       8.215   0.101   1.129  1.00  0.00    +0.000 OA
ATOM     24  H   UNL     1       8.645   0.929   0.862  1.00  0.00    +0.000 HD
ENDBRANCH  20  23
ENDBRANCH  14  17
BRANCH  11  25
ATOM     25  O   UNL     1      -0.614  -0.559   2.464  1.00  0.00    +0.000 OA
ATOM     26  H   UNL     1       0.352  -0.542   2.655  1.00  0.00    +0.000 HD
ENDBRANCH  11  25
BRANCH   2  27
ATOM     27  C   UNL     1      -5.775   0.808  -0.762  1.00  0.00    +0.000 C 
BRANCH  27  28
ATOM     28  O   UNL     1      -7.070   0.483  -0.256  1.00  0.00    +0.000 OA
ATOM     29  H   UNL     1      -7.479  -0.144  -0.877  1.00  0.00    +0.000 HD
ENDBRANCH  27  28
ENDBRANCH   2  27
TORSDOF 5
