REMARK  Name = SANCDB_00970_minRM1.pdb
AUTHORGENERATED BY OPEN BABEL 2.3.2
REMARK  2 active torsions:
REMARK  status: ('A' for Active; 'I' for Inactive)
REMARK    1  A    between atoms: C_1  and  C_2
REMARK    2  A    between atoms: C_8  and  C_10
REMARK                            x       y       z     vdW  Elec       q    Type
REMARK                         _______ _______ _______ _____ _____    ______ ____
ROOT
ATOM      1  C   UNL     1      -4.630   1.319   0.576  1.00  0.00    +0.000 C 
ATOM      2  C   UNL     1      -3.132   1.492   0.649  1.00  0.00    +0.000 C 
ATOM      3  O   UNL     1      -2.665   2.557   1.059  1.00  0.00    +0.000 OA
ATOM      4  N   UNL     1      -2.348   0.405   0.238  1.00  0.00    +0.000 N 
ATOM      5  C   UNL     1      -2.933  -0.828  -0.301  1.00  0.00    +0.000 C 
ATOM      6  C   UNL     1      -2.016  -2.030  -0.144  1.00  0.00    +0.000 C 
ATOM      7  C   UNL     1      -0.640  -1.733  -0.721  1.00  0.00    +0.000 C 
ATOM      8  C   UNL     1      -0.116  -0.389  -0.267  1.00  0.00    +0.000 C 
ATOM      9  C   UNL     1      -0.965   0.554   0.187  1.00  0.00    +0.000 C 
ENDROOT
BRANCH   8  10
ATOM     10  C   UNL     1       1.389  -0.191  -0.400  1.00  0.00    +0.000 C 
ATOM     11  C   UNL     1       1.881   1.268  -0.310  1.00  0.00    +0.000 C 
ATOM     12  C   UNL     1       3.383   1.368  -0.581  1.00  0.00    +0.000 C 
ATOM     13  C   UNL     1       4.148   0.154  -0.057  1.00  0.00    +0.000 C 
ATOM     14  C   UNL     1       3.368  -0.566   1.035  1.00  0.00    +0.000 C 
ATOM     15  N   UNL     1       2.075  -1.066   0.569  1.00  0.00    +0.000 NA
ATOM     16  H   UNL     1       2.205  -1.980   0.139  1.00  0.00    +0.000 HD
ENDBRANCH   8  10
TORSDOF 1
