REMARK  Name = /srv/my_project/app/compsite/backup/Dave/CORINA_stuff/newPDBs/SANC00636.pdb
AUTHORGENERATED BY OPEN BABEL 2.3.2
REMARK  3 active torsions:
REMARK  status: ('A' for Active; 'I' for Inactive)
REMARK    1  A    between atoms: C_1  and  O_2
REMARK    2  A    between atoms: O_2  and  C_3
REMARK    3  A    between atoms: C_8  and  O_9
REMARK                            x       y       z     vdW  Elec       q    Type
REMARK                         _______ _______ _______ _____ _____    ______ ____
ROOT
ATOM      1  C   UNL     1       2.434   0.810  -0.560  1.00  0.00    +0.000 C 
ATOM      2  C   UNL     1       2.428  -0.658  -0.091  1.00  0.00    +0.000 C 
ATOM      3  C   UNL     1       1.503  -0.908   1.114  1.00  0.00    +0.000 C 
ATOM      4  C   UNL     1       0.682   0.275   1.570  1.00  0.00    +0.000 C 
ATOM      5  C   UNL     1       1.086   1.544   1.408  1.00  0.00    +0.000 C 
ATOM      6  C   UNL     1       2.347   1.801   0.636  1.00  0.00    +0.000 C 
ATOM      7  C   UNL     1      -0.640  -0.243   2.070  1.00  0.00    +0.000 C 
ATOM      8  C   UNL     1      -0.305  -1.732   2.281  1.00  0.00    +0.000 C 
ATOM      9  N   UNL     1       0.546  -2.052   1.095  1.00  0.00    +0.000 NA
ATOM     10  C   UNL     1      -0.340  -2.099  -0.099  1.00  0.00    +0.000 C 
ATOM     11  C   UNL     1      -1.446  -1.052  -0.164  1.00  0.00    +0.000 A 
ATOM     12  C   UNL     1      -1.638  -0.158   0.930  1.00  0.00    +0.000 A 
ATOM     13  C   UNL     1      -2.658   0.799   0.906  1.00  0.00    +0.000 A 
ATOM     14  C   UNL     1      -3.473   0.827  -0.205  1.00  0.00    +0.000 A 
ATOM     15  C   UNL     1      -3.299  -0.040  -1.260  1.00  0.00    +0.000 A 
ATOM     16  C   UNL     1      -2.300  -0.990  -1.273  1.00  0.00    +0.000 A 
ATOM     17  O   UNL     1      -4.210   0.161  -2.251  1.00  0.00    +0.000 OA
ATOM     18  C   UNL     1      -4.977   1.252  -1.698  1.00  0.00    +0.000 C 
ATOM     19  O   UNL     1      -4.512   1.683  -0.402  1.00  0.00    +0.000 OA
ENDROOT
BRANCH   1  21
ATOM     20  C   UNL     1       3.631   0.464  -2.604  1.00  0.00    +0.000 C 
ATOM     21  O   UNL     1       3.597   1.122  -1.346  1.00  0.00    +0.000 OA
ENDBRANCH   1  21
BRANCH   6  22
ATOM     22  O   UNL     1       3.441   1.631   1.534  1.00  0.00    +0.000 OA
ATOM     23  H   UNL     1       3.350   2.310   2.221  1.00  0.00    +0.000 HD
ENDBRANCH   6  22
TORSDOF 2
