REMARK  Name = /srv/my_project/app/compsite/backup/Dave/CORINA_stuff/newPDBs/SANC00306.pdb
AUTHORGENERATED BY OPEN BABEL 2.3.2
REMARK  6 active torsions:
REMARK  status: ('A' for Active; 'I' for Inactive)
REMARK    1  A    between atoms: C_1  and  O_2
REMARK    2  A    between atoms: O_2  and  C_3
REMARK    3  A    between atoms: C_6  and  C_9
REMARK    4  A    between atoms: C_9  and  C_10
REMARK    5  A    between atoms: C_11  and  C_16
REMARK    6  A    between atoms: C_19  and  O_22
REMARK                            x       y       z     vdW  Elec       q    Type
REMARK                         _______ _______ _______ _____ _____    ______ ____
ROOT
ATOM      1  C   UNL     1       0.947  -2.021   0.332  1.00  0.00    +0.000 C 
ATOM      2  C   UNL     1       1.984  -1.260  -0.019  1.00  0.00    +0.000 C 
ATOM      3  C   UNL     1       2.768  -1.961  -1.061  1.00  0.00    +0.000 C 
ATOM      4  C   UNL     1       1.983  -3.245  -1.154  1.00  0.00    +0.000 C 
ATOM      5  O   UNL     1       2.274  -4.178  -1.894  1.00  0.00    +0.000 OA
ATOM      6  O   UNL     1       0.897  -3.260  -0.314  1.00  0.00    +0.000 OA
ENDROOT
BRANCH   2   7
ATOM      7  C   UNL     1       2.325   0.086   0.431  1.00  0.00    +0.000 A 
ATOM      8  C   UNL     1       2.572   0.348   1.784  1.00  0.00    +0.000 A 
ATOM      9  C   UNL     1       2.896   1.639   2.207  1.00  0.00    +0.000 A 
ATOM     10  C   UNL     1       2.979   2.668   1.278  1.00  0.00    +0.000 A 
ATOM     11  C   UNL     1       2.746   2.428  -0.071  1.00  0.00    +0.000 A 
ATOM     12  C   UNL     1       2.421   1.135  -0.493  1.00  0.00    +0.000 A 
BRANCH  10  13
ATOM     13  O   UNL     1       3.298   3.912   1.735  1.00  0.00    +0.000 OA
ATOM     14  H   UNL     1       3.347   4.520   0.980  1.00  0.00    +0.000 HD
ENDBRANCH  10  13
ENDBRANCH   2   7
BRANCH   1  15
ATOM     15  C   UNL     1      -0.165  -1.739   1.298  1.00  0.00    +0.000 C 
BRANCH  15  19
ATOM     16  C   UNL     1      -3.617  -0.008  -0.679  1.00  0.00    +0.000 A 
ATOM     17  C   UNL     1      -3.439  -1.399  -0.634  1.00  0.00    +0.000 A 
ATOM     18  C   UNL     1      -2.330  -1.962   0.008  1.00  0.00    +0.000 A 
ATOM     19  C   UNL     1      -1.377  -1.141   0.623  1.00  0.00    +0.000 A 
ATOM     20  C   UNL     1      -1.548   0.248   0.570  1.00  0.00    +0.000 A 
ATOM     21  C   UNL     1      -2.658   0.808  -0.072  1.00  0.00    +0.000 A 
ATOM     22 BR   UNL     1      -4.686  -2.588  -1.440  1.00  0.00    +0.000 Br
BRANCH  16  24
ATOM     23  C   UNL     1      -4.946   1.860  -1.353  1.00  0.00    +0.000 C 
ATOM     24  O   UNL     1      -4.731   0.455  -1.328  1.00  0.00    +0.000 OA
ENDBRANCH  16  24
ENDBRANCH  15  19
ENDBRANCH   1  15
TORSDOF 5
