REMARK  Name = /srv/my_project/app/compsite/backup/Dave/CORINA_stuff/newPDBs/SANC00398.pdb
AUTHORGENERATED BY OPEN BABEL 2.3.2
REMARK  19 active torsions:
REMARK  status: ('A' for Active; 'I' for Inactive)
REMARK    1  A    between atoms: C_12  and  O_14
REMARK    2  A    between atoms: O_14  and  C_15
REMARK    3  A    between atoms: C_18  and  C_20
REMARK    4  A    between atoms: C_20  and  O_21
REMARK    5  A    between atoms: C_22  and  O_24
REMARK    6  A    between atoms: C_25  and  O_27
REMARK    7  A    between atoms: C_28  and  O_30
REMARK    8  A    between atoms: O_30  and  C_31
REMARK    9  A    between atoms: C_34  and  C_36
REMARK   10  A    between atoms: C_37  and  O_39
REMARK   11  A    between atoms: C_40  and  O_42
REMARK   12  A    between atoms: C_43  and  O_45
REMARK   13  A    between atoms: C_48  and  C_49
REMARK   14  A    between atoms: C_54  and  C_55
REMARK   15  A    between atoms: C_59  and  C_61
REMARK   16  A    between atoms: C_62  and  C_64
REMARK   17  A    between atoms: C_65  and  C_66
REMARK   18  A    between atoms: C_65  and  C_67
REMARK   19  A    between atoms: C_68  and  O_70
REMARK                            x       y       z     vdW  Elec       q    Type
REMARK                         _______ _______ _______ _____ _____    ______ ____
ROOT
ATOM      1  C   UNL     1      -6.082   2.032   0.036  1.00  0.00    +0.000 C 
ATOM      2  C   UNL     1      -4.590   2.401  -0.069  1.00  0.00    +0.000 C 
ATOM      3  C   UNL     1      -3.881   1.060  -0.251  1.00  0.00    +0.000 C 
ATOM      4  C   UNL     1      -2.393   0.967   0.104  1.00  0.00    +0.000 C 
ATOM      5  C   UNL     1      -1.580   1.998  -0.693  1.00  0.00    +0.000 C 
ATOM      6  C   UNL     1      -0.110   1.726  -0.706  1.00  0.00    +0.000 C 
ATOM      7  C   UNL     1       0.460   0.574  -0.310  1.00  0.00    +0.000 C 
ATOM      8  C   UNL     1       1.968   0.421  -0.343  1.00  0.00    +0.000 C 
ATOM      9  C   UNL     1       2.409  -0.857  -1.066  1.00  0.00    +0.000 C 
ATOM     10  C   UNL     1       1.706  -2.072  -0.461  1.00  0.00    +0.000 C 
ATOM     11  C   UNL     1       0.186  -1.921  -0.505  1.00  0.00    +0.000 C 
ATOM     12  C   UNL     1      -0.350  -0.632   0.184  1.00  0.00    +0.000 C 
ATOM     13  C   UNL     1      -0.152  -0.747   1.715  1.00  0.00    +0.000 C 
ATOM     14  C   UNL     1      -1.879  -0.471  -0.189  1.00  0.00    +0.000 C 
ATOM     15  C   UNL     1      -2.797  -1.556   0.432  1.00  0.00    +0.000 C 
ATOM     16  C   UNL     1      -4.296  -1.355   0.143  1.00  0.00    +0.000 C 
ATOM     17  C   UNL     1      -4.754   0.057   0.524  1.00  0.00    +0.000 C 
ATOM     18  C   UNL     1      -6.158   0.485   0.020  1.00  0.00    +0.000 C 
ATOM     19  C   UNL     1      -7.388  -0.070   0.783  1.00  0.00    +0.000 C 
ATOM     20  C   UNL     1      -7.854  -1.391   0.157  1.00  0.00    +0.000 C 
ATOM     21  C   UNL     1      -8.514   0.999   0.780  1.00  0.00    +0.000 C 
ATOM     22  C   UNL     1      -7.992   2.320   1.419  1.00  0.00    +0.000 C 
ATOM     23  O   UNL     1      -6.588   2.519   1.268  1.00  0.00    +0.000 OA
ENDROOT
BRANCH  21  24
ATOM     24  C   UNL     1      -9.758   0.523   1.509  1.00  0.00    +0.000 C 
ATOM     25  C   UNL     1     -11.011   0.387   1.031  1.00  0.00    +0.000 C 
ATOM     26  C   UNL     1     -11.460   0.697  -0.370  1.00  0.00    +0.000 C 
ATOM     27  C   UNL     1     -12.116  -0.115   1.928  1.00  0.00    +0.000 C 
ENDBRANCH  21  24
BRANCH  17  28
ATOM     28  C   UNL     1      -4.649   0.248   2.050  1.00  0.00    +0.000 C 
ATOM     29  O   UNL     1      -4.758  -0.668   2.862  1.00  0.00    +0.000 OA
ENDBRANCH  17  28
BRANCH  22  30
ATOM     30  O   UNL     1      -8.681   3.459   0.918  1.00  0.00    +0.000 OA
ATOM     31  H   UNL     1      -8.885   3.296  -0.015  1.00  0.00    +0.000 HD
ENDBRANCH  22  30
BRANCH   9  32
ATOM     32  O   UNL     1       3.815  -1.063  -0.903  1.00  0.00    +0.000 OA
BRANCH  32  33
ATOM     33  C   UNL     1       4.609  -0.366  -1.875  1.00  0.00    +0.000 C 
ATOM     34  O   UNL     1       4.525  -1.095  -3.098  1.00  0.00    +0.000 OA
ATOM     35  C   UNL     1       5.389  -0.652  -4.154  1.00  0.00    +0.000 C 
ATOM     36  C   UNL     1       6.350   0.492  -3.779  1.00  0.00    +0.000 C 
ATOM     37  C   UNL     1       6.999   0.311  -2.400  1.00  0.00    +0.000 C 
ATOM     38  C   UNL     1       6.062  -0.331  -1.356  1.00  0.00    +0.000 C 
BRANCH  36  39
ATOM     39  O   UNL     1       5.595   1.717  -3.785  1.00  0.00    +0.000 OA
ATOM     40  H   UNL     1       6.224   2.449  -3.651  1.00  0.00    +0.000 HD
ENDBRANCH  36  39
BRANCH  37  41
ATOM     41  O   UNL     1       8.216  -0.444  -2.514  1.00  0.00    +0.000 OA
ATOM     42  H   UNL     1       7.978  -1.342  -2.837  1.00  0.00    +0.000 HD
ENDBRANCH  37  41
BRANCH  35  43
ATOM     43  C   UNL     1       6.138  -1.893  -4.657  1.00  0.00    +0.000 C 
BRANCH  43  44
ATOM     44  O   UNL     1       6.866  -2.506  -3.590  1.00  0.00    +0.000 OA
ATOM     45  H   UNL     1       6.182  -2.915  -3.019  1.00  0.00    +0.000 HD
ENDBRANCH  43  44
ENDBRANCH  35  43
BRANCH  38  46
ATOM     46  O   UNL     1       6.107   0.415  -0.121  1.00  0.00    +0.000 OA
BRANCH  46  47
ATOM     47  C   UNL     1       7.298   0.177   0.637  1.00  0.00    +0.000 C 
ATOM     48  O   UNL     1       7.324  -1.170   1.109  1.00  0.00    +0.000 OA
ATOM     49  C   UNL     1       8.544  -1.523   1.777  1.00  0.00    +0.000 C 
ATOM     50  C   UNL     1       9.555  -2.059   0.767  1.00  0.00    +0.000 C 
ATOM     51  C   UNL     1       9.125  -0.369   2.618  1.00  0.00    +0.000 C 
ATOM     52  C   UNL     1       7.975   0.537   3.062  1.00  0.00    +0.000 C 
ATOM     53  C   UNL     1       7.311   1.164   1.829  1.00  0.00    +0.000 C 
BRANCH  51  54
ATOM     54  O   UNL     1       9.822  -0.878   3.759  1.00  0.00    +0.000 OA
ATOM     55  H   UNL     1      10.402  -0.159   4.070  1.00  0.00    +0.000 HD
ENDBRANCH  51  54
BRANCH  52  56
ATOM     56  O   UNL     1       8.458   1.577   3.932  1.00  0.00    +0.000 OA
ATOM     57  H   UNL     1       8.627   1.144   4.790  1.00  0.00    +0.000 HD
ENDBRANCH  52  56
BRANCH  53  58
ATOM     58  O   UNL     1       8.035   2.359   1.465  1.00  0.00    +0.000 OA
ATOM     59  H   UNL     1       8.265   2.774   2.322  1.00  0.00    +0.000 HD
ENDBRANCH  53  58
ENDBRANCH  46  47
ENDBRANCH  38  46
ENDBRANCH  32  33
ENDBRANCH   9  32
TORSDOF 14
