REMARK  Name = SANCDB_01046_minRM1.pdb
AUTHORGENERATED BY OPEN BABEL 2.3.2
REMARK  21 active torsions:
REMARK  status: ('A' for Active; 'I' for Inactive)
REMARK    1  A    between atoms: C_1  and  C_2
REMARK    2  A    between atoms: C_2  and  C_3
REMARK    3  A    between atoms: C_2  and  C_19
REMARK    4  A    between atoms: C_3  and  C_4
REMARK    5  A    between atoms: C_4  and  C_5
REMARK    6  A    between atoms: C_5  and  C_6
REMARK    7  A    between atoms: C_6  and  C_7
REMARK    8  A    between atoms: C_6  and  C_8
REMARK    9  A    between atoms: C_8  and  C_9
REMARK   10  A    between atoms: C_9  and  C_10
REMARK   11  A    between atoms: C_10  and  C_11
REMARK   12  A    between atoms: C_11  and  C_18
REMARK   13  A    between atoms: C_12  and  C_13
REMARK   14  A    between atoms: C_13  and  O_14
REMARK   15  A    between atoms: O_14  and  C_15
REMARK   16  A    between atoms: C_15  and  C_17
REMARK   17  A    between atoms: C_19  and  C_20
REMARK   18  A    between atoms: C_20  and  C_21
REMARK   19  A    between atoms: C_21  and  C_22
REMARK   20  A    between atoms: C_22  and  C_23
REMARK   21  A    between atoms: C_22  and  C_24
REMARK                            x       y       z     vdW  Elec       q    Type
REMARK                         _______ _______ _______ _____ _____    ______ ____
ROOT
ATOM      1  C   UNL     1       1.136  -0.295  -0.513  1.00  0.00    +0.000 C 
ATOM      2  C   UNL     1       1.590   0.760  -1.524  1.00  0.00    +0.000 C 
ENDROOT
BRANCH   1   3
ATOM      3  C   UNL     1      -0.403  -0.451  -0.507  1.00  0.00    +0.000 C 
BRANCH   3   4
ATOM      4  C   UNL     1      -1.191   0.815  -0.154  1.00  0.00    +0.000 C 
BRANCH   4   5
ATOM      5  C   UNL     1      -2.705   0.579  -0.041  1.00  0.00    +0.000 C 
BRANCH   5   7
ATOM      6  C   UNL     1      -3.245   1.068  -2.485  1.00  0.00    +0.000 C 
ATOM      7  C   UNL     1      -3.405   0.085  -1.323  1.00  0.00    +0.000 C 
BRANCH   7   8
ATOM      8  C   UNL     1      -4.892  -0.254  -1.065  1.00  0.00    +0.000 C 
BRANCH   8   9
ATOM      9  C   UNL     1      -5.770   0.925  -0.632  1.00  0.00    +0.000 C 
BRANCH   9  10
ATOM     10  C   UNL     1      -7.258   0.565  -0.523  1.00  0.00    +0.000 C 
BRANCH  10  11
ATOM     11  C   UNL     1      -7.612  -0.544   0.487  1.00  0.00    +0.000 C 
ATOM     12  C   UNL     1      -7.162  -0.205   1.908  1.00  0.00    +0.000 C 
ATOM     13  C   UNL     1      -9.122  -0.796   0.468  1.00  0.00    +0.000 C 
ENDBRANCH  10  11
ENDBRANCH   9  10
ENDBRANCH   8   9
ENDBRANCH   7   8
ENDBRANCH   5   7
ENDBRANCH   4   5
ENDBRANCH   3   4
ENDBRANCH   1   3
BRANCH   1  14
ATOM     14  C   UNL     1       1.686  -0.021   0.902  1.00  0.00    +0.000 C 
BRANCH  14  15
ATOM     15  C   UNL     1       3.217   0.011   1.032  1.00  0.00    +0.000 C 
BRANCH  15  16
ATOM     16  C   UNL     1       3.893  -1.314   0.657  1.00  0.00    +0.000 C 
BRANCH  16  17
ATOM     17  C   UNL     1       5.401  -1.422   0.862  1.00  0.00    +0.000 C 
ATOM     18  C   UNL     1       6.172  -0.407   1.306  1.00  0.00    +0.000 C 
ATOM     19  C   UNL     1       5.932  -2.790   0.508  1.00  0.00    +0.000 C 
BRANCH  18  20
ATOM     20  C   UNL     1       7.656  -0.381   1.529  1.00  0.00    +0.000 C 
BRANCH  20  21
ATOM     21  O   UNL     1       8.167   0.755   0.821  1.00  0.00    +0.000 OA
BRANCH  21  22
ATOM     22  C   UNL     1       9.510   0.920   0.946  1.00  0.00    +0.000 C 
ATOM     23  O   UNL     1      10.259   0.205   1.596  1.00  0.00    +0.000 OA
ATOM     24  C   UNL     1       9.953   2.121   0.166  1.00  0.00    +0.000 C 
ENDBRANCH  21  22
ENDBRANCH  20  21
ENDBRANCH  18  20
ENDBRANCH  16  17
ENDBRANCH  15  16
ENDBRANCH  14  15
ENDBRANCH   1  14
TORSDOF 15
