REMARK  Name = /srv/my_project/app/compsite/backup/Dave/CORINA_stuff/newPDBs/SANC00263.pdb
AUTHORGENERATED BY OPEN BABEL 2.3.2
REMARK  4 active torsions:
REMARK  status: ('A' for Active; 'I' for Inactive)
REMARK    1  A    between atoms: C_4  and  C_6
REMARK    2  A    between atoms: C_9  and  O_10
REMARK    3  A    between atoms: C_16  and  O_17
REMARK    4  A    between atoms: C_19  and  O_20
REMARK                            x       y       z     vdW  Elec       q    Type
REMARK                         _______ _______ _______ _____ _____    ______ ____
ROOT
ATOM      1  O   UNL     1       1.734  -2.163  -2.366  1.00  0.00    +0.000 OA
ATOM      2  C   UNL     1       1.343  -1.444  -1.454  1.00  0.00    +0.000 C 
ATOM      3  C   UNL     1      -0.113  -1.408  -1.081  1.00  0.00    +0.000 C 
ATOM      4  C   UNL     1      -0.452   0.018  -0.685  1.00  0.00    +0.000 C 
ATOM      5  O   UNL     1       0.305   0.411   0.470  1.00  0.00    +0.000 OA
ATOM      6  C   UNL     1       1.659   0.265   0.305  1.00  0.00    +0.000 A 
ATOM      7  C   UNL     1       2.449   1.035   1.161  1.00  0.00    +0.000 A 
ATOM      8  C   UNL     1       3.832   0.961   1.062  1.00  0.00    +0.000 A 
ATOM      9  C   UNL     1       4.437   0.124   0.131  1.00  0.00    +0.000 A 
ATOM     10  C   UNL     1       3.646  -0.661  -0.711  1.00  0.00    +0.000 A 
ATOM     11  C   UNL     1       2.248  -0.602  -0.626  1.00  0.00    +0.000 A 
ENDROOT
BRANCH   4  12
ATOM     12  C   UNL     1      -1.930   0.150  -0.367  1.00  0.00    +0.000 A 
ATOM     13  C   UNL     1      -2.451  -0.256   0.872  1.00  0.00    +0.000 A 
ATOM     14  C   UNL     1      -3.817  -0.149   1.139  1.00  0.00    +0.000 A 
ATOM     15  C   UNL     1      -4.670   0.359   0.169  1.00  0.00    +0.000 A 
ATOM     16  C   UNL     1      -4.181   0.762  -1.069  1.00  0.00    +0.000 A 
ATOM     17  C   UNL     1      -2.814   0.655  -1.336  1.00  0.00    +0.000 A 
BRANCH  15  18
ATOM     18  O   UNL     1      -5.997   0.445   0.472  1.00  0.00    +0.000 OA
ATOM     19  H   UNL     1      -6.467   0.810  -0.295  1.00  0.00    +0.000 HD
ENDBRANCH  15  18
ENDBRANCH   4  12
BRANCH   8  20
ATOM     20  O   UNL     1       4.644   1.701   1.869  1.00  0.00    +0.000 OA
ATOM     21  H   UNL     1       4.096   2.230   2.473  1.00  0.00    +0.000 HD
ENDBRANCH   8  20
BRANCH  10  22
ATOM     22  O   UNL     1       4.261  -1.491  -1.603  1.00  0.00    +0.000 OA
ATOM     23  H   UNL     1       5.226  -1.412  -1.528  1.00  0.00    +0.000 HD
ENDBRANCH  10  22
TORSDOF 4
