REMARK  Name = /srv/my_project/app/compsite/backup/Dave/CORINA_stuff/newPDBs/SANC00198.pdb
AUTHORGENERATED BY OPEN BABEL 2.3.2
REMARK  7 active torsions:
REMARK  status: ('A' for Active; 'I' for Inactive)
REMARK    1  A    between atoms: C_1  and  C_2
REMARK    2  A    between atoms: C_2  and  C_3
REMARK    3  A    between atoms: C_8  and  O_10
REMARK    4  A    between atoms: C_11  and  C_12
REMARK    5  A    between atoms: C_11  and  C_13
REMARK    6  A    between atoms: C_13  and  O_14
REMARK    7  A    between atoms: C_19  and  C_20
REMARK                            x       y       z     vdW  Elec       q    Type
REMARK                         _______ _______ _______ _____ _____    ______ ____
ROOT
ATOM      1  C   UNL     1      -2.369  -1.186   1.017  1.00  0.00    +0.000 C 
ATOM      2  C   UNL     1      -2.276  -0.239  -0.203  1.00  0.00    +0.000 C 
ATOM      3  C   UNL     1      -2.450  -1.105  -1.470  1.00  0.00    +0.000 C 
ATOM      4  C   UNL     1      -3.393   0.839  -0.173  1.00  0.00    +0.000 C 
ATOM      5 BR   UNL     1      -5.185   0.215   0.239  1.00  0.00    +0.000 Br
ATOM      6  C   UNL     1      -2.933   1.863   0.841  1.00  0.00    +0.000 C 
ATOM      7  C   UNL     1      -1.408   1.904   0.714  1.00  0.00    +0.000 C 
ATOM      8  C   UNL     1      -0.951   0.696  -0.203  1.00  0.00    +0.000 C 
ATOM      9  C   UNL     1      -0.750   1.283  -1.642  1.00  0.00    +0.000 C 
ENDROOT
BRANCH   8  10
ATOM     10  C   UNL     1       0.432   0.049   0.302  1.00  0.00    +0.000 C 
ATOM     11  C   UNL     1       1.576   1.112   0.412  1.00  0.00    +0.000 C 
ATOM     12  C   UNL     1       2.981   0.631   0.013  1.00  0.00    +0.000 C 
ATOM     13 BR   UNL     1       3.226   0.949  -1.921  1.00  0.00    +0.000 Br
ATOM     14  C   UNL     1       3.274  -0.827   0.398  1.00  0.00    +0.000 C 
ATOM     15  C   UNL     1       4.694  -1.283   0.030  1.00  0.00    +0.000 C 
ATOM     16 CL   UNL     1       3.197  -0.939   2.220  1.00  0.00    +0.000 Cl
ATOM     17  C   UNL     1       2.227  -1.797  -0.176  1.00  0.00    +0.000 C 
ATOM     18  C   UNL     1       0.864  -1.178  -0.527  1.00  0.00    +0.000 C 
BRANCH  10  19
ATOM     19  O   UNL     1       0.206  -0.426   1.647  1.00  0.00    +0.000 OA
ATOM     20  H   UNL     1       1.043  -0.770   2.016  1.00  0.00    +0.000 HD
ENDBRANCH  10  19
ENDBRANCH   8  10
BRANCH   7  21
ATOM     21  O   UNL     1      -0.867   1.900   2.028  1.00  0.00    +0.000 OA
ATOM     22  H   UNL     1      -0.699   0.965   2.272  1.00  0.00    +0.000 HD
ENDBRANCH   7  21
TORSDOF 3
