REMARK  Name = SANCDB_00767_minRM1.pdb
AUTHORGENERATED BY OPEN BABEL 2.3.2
REMARK  6 active torsions:
REMARK  status: ('A' for Active; 'I' for Inactive)
REMARK    1  A    between atoms: C_1  and  C_2
REMARK    2  A    between atoms: C_2  and  C_3
REMARK    3  A    between atoms: C_3  and  O_4
REMARK    4  A    between atoms: C_6  and  C_7
REMARK    5  A    between atoms: C_8  and  C_9
REMARK    6  A    between atoms: C_8  and  O_10
REMARK                            x       y       z     vdW  Elec       q    Type
REMARK                         _______ _______ _______ _____ _____    ______ ____
ROOT
ATOM      1  C   UNL     1      -1.118   2.016  -0.097  1.00  0.00    +0.000 C 
ATOM      2  C   UNL     1      -1.868   1.053   0.865  1.00  0.00    +0.000 C 
ATOM      3  C   UNL     1      -2.851  -0.010   0.269  1.00  0.00    +0.000 C 
ATOM      4  C   UNL     1      -4.218   0.172   0.963  1.00  0.00    +0.000 C 
ATOM      5  C   UNL     1      -2.349  -1.489   0.418  1.00  0.00    +0.000 C 
ATOM      6  C   UNL     1      -3.455  -2.545   0.252  1.00  0.00    +0.000 C 
ATOM      7  C   UNL     1      -1.320  -1.799  -0.696  1.00  0.00    +0.000 C 
ATOM      8  O   UNL     1      -1.597  -1.902  -1.883  1.00  0.00    +0.000 OA
ATOM      9  O   UNL     1      -0.083  -1.977  -0.158  1.00  0.00    +0.000 OA
ATOM     10  C   UNL     1       0.941  -2.273  -1.112  1.00  0.00    +0.000 C 
ATOM     11  C   UNL     1       2.246  -2.005  -0.458  1.00  0.00    +0.000 C 
ATOM     12  C   UNL     1       3.288  -2.840  -0.275  1.00  0.00    +0.000 C 
ATOM     13  C   UNL     1       4.410  -2.135   0.442  1.00  0.00    +0.000 C 
ATOM     14  N   UNL     1       4.018  -0.768   0.196  1.00  0.00    +0.000 NA
ATOM     15  C   UNL     1       2.553  -0.714   0.220  1.00  0.00    +0.000 C 
ATOM     16  C   UNL     1       2.367   0.699  -0.321  1.00  0.00    +0.000 C 
ATOM     17  O   UNL     1       1.148   1.301   0.148  1.00  0.00    +0.000 OA
ATOM     18  C   UNL     1       0.086   1.274  -0.712  1.00  0.00    +0.000 C 
ATOM     19  O   UNL     1       0.087   0.731  -1.806  1.00  0.00    +0.000 OA
ATOM     20  C   UNL     1       3.555   1.454   0.345  1.00  0.00    +0.000 C 
ATOM     21  C   UNL     1       4.493   0.374   0.917  1.00  0.00    +0.000 C 
ENDROOT
BRANCH   1  23
ATOM     22  C   UNL     1      -1.189   3.734  -2.019  1.00  0.00    +0.000 C 
ATOM     23  C   UNL     1      -1.948   2.649  -1.246  1.00  0.00    +0.000 C 
ATOM     24 CL   UNL     1      -3.467   3.403  -0.637  1.00  0.00    +0.000 Cl
ENDBRANCH   1  23
BRANCH   1  25
ATOM     25  O   UNL     1      -0.597   3.089   0.727  1.00  0.00    +0.000 OA
ATOM     26  H   UNL     1       0.050   2.689   1.339  1.00  0.00    +0.000 HD
ENDBRANCH   1  25
BRANCH   5  27
ATOM     27  O   UNL     1      -1.833  -1.663   1.742  1.00  0.00    +0.000 OA
ATOM     28  H   UNL     1      -1.300  -2.479   1.737  1.00  0.00    +0.000 HD
ENDBRANCH   5  27
TORSDOF 3
