REMARK  Name = /srv/my_project/app/compsite/backup/Dave/CORINA_stuff/newPDBs/SANC00379.pdb
AUTHORGENERATED BY OPEN BABEL 2.3.2
REMARK  6 active torsions:
REMARK  status: ('A' for Active; 'I' for Inactive)
REMARK    1  A    between atoms: C_1  and  O_2
REMARK    2  A    between atoms: O_2  and  C_3
REMARK    3  A    between atoms: N_8  and  C_9
REMARK    4  A    between atoms: C_16  and  O_17
REMARK    5  A    between atoms: O_17  and  C_18
REMARK    6  A    between atoms: C_19  and  O_20
REMARK                            x       y       z     vdW  Elec       q    Type
REMARK                         _______ _______ _______ _____ _____    ______ ____
ROOT
ATOM      1  C   UNL     1      -3.060   0.863   0.363  1.00  0.00    +0.000 C 
ATOM      2  C   UNL     1      -1.850   0.718   0.926  1.00  0.00    +0.000 C 
ATOM      3  C   UNL     1      -0.775  -0.291   0.549  1.00  0.00    +0.000 C 
ATOM      4  C   UNL     1      -0.459  -1.171   1.783  1.00  0.00    +0.000 C 
ATOM      5  C   UNL     1       0.482  -2.335   1.440  1.00  0.00    +0.000 C 
ATOM      6  N   UNL     1      -0.009  -3.106   0.292  1.00  0.00    +0.000 NA
ATOM      7  C   UNL     1       0.874  -4.232   0.003  1.00  0.00    +0.000 C 
ATOM      8  C   UNL     1      -0.315  -2.290  -0.899  1.00  0.00    +0.000 C 
ATOM      9  C   UNL     1       0.847  -1.566  -1.616  1.00  0.00    +0.000 C 
ATOM     10  C   UNL     1       1.291  -0.263  -0.979  1.00  0.00    +0.000 A 
ATOM     11  C   UNL     1       2.483   0.317  -1.453  1.00  0.00    +0.000 A 
ATOM     12  C   UNL     1       2.990   1.485  -0.887  1.00  0.00    +0.000 A 
ATOM     13  C   UNL     1       2.321   2.074   0.178  1.00  0.00    +0.000 A 
ATOM     14  C   UNL     1       1.123   1.500   0.646  1.00  0.00    +0.000 A 
ATOM     15  C   UNL     1       0.546   0.361   0.055  1.00  0.00    +0.000 A 
ATOM     16  C   UNL     1      -1.314  -1.234  -0.522  1.00  0.00    +0.000 C 
ATOM     17  C   UNL     1      -2.519  -1.136  -1.105  1.00  0.00    +0.000 C 
ATOM     18  C   UNL     1      -3.471  -0.069  -0.737  1.00  0.00    +0.000 C 
ATOM     19  O   UNL     1      -4.543   0.003  -1.328  1.00  0.00    +0.000 OA
ENDROOT
BRANCH   1  21
ATOM     20  C   UNL     1      -4.728   2.491  -0.086  1.00  0.00    +0.000 C 
ATOM     21  O   UNL     1      -3.905   1.839   0.874  1.00  0.00    +0.000 OA
ENDBRANCH   1  21
BRANCH  13  22
ATOM     22  O   UNL     1       2.727   3.195   0.861  1.00  0.00    +0.000 OA
ATOM     23  C   UNL     1       3.914   3.829   0.400  1.00  0.00    +0.000 C 
ENDBRANCH  13  22
BRANCH  14  24
ATOM     24  O   UNL     1       0.552   2.078   1.753  1.00  0.00    +0.000 OA
ATOM     25  H   UNL     1       1.118   2.848   1.962  1.00  0.00    +0.000 HD
ENDBRANCH  14  24
TORSDOF 3
