REMARK  Name = /srv/my_project/app/compsite/backup/Dave/CORINA_stuff/newPDBs/SANC00389.pdb
AUTHORGENERATED BY OPEN BABEL 2.3.2
REMARK  23 active torsions:
REMARK  status: ('A' for Active; 'I' for Inactive)
REMARK    1  A    between atoms: C_2  and  O_3
REMARK    2  A    between atoms: O_3  and  C_4
REMARK    3  A    between atoms: C_6  and  O_8
REMARK    4  A    between atoms: C_11  and  O_13
REMARK    5  A    between atoms: O_13  and  C_14
REMARK    6  A    between atoms: C_25  and  O_27
REMARK    7  A    between atoms: C_30  and  C_31
REMARK    8  A    between atoms: C_36  and  C_37
REMARK    9  A    between atoms: C_38  and  O_39
REMARK   10  A    between atoms: C_38  and  C_40
REMARK   11  A    between atoms: C_40  and  C_42
REMARK   12  A    between atoms: C_40  and  C_43
REMARK   13  A    between atoms: C_43  and  C_45
REMARK   14  A    between atoms: C_45  and  C_46
REMARK   15  A    between atoms: C_46  and  C_47
REMARK   16  A    between atoms: C_47  and  C_48
REMARK   17  A    between atoms: C_47  and  C_49
REMARK   18  A    between atoms: C_50  and  O_52
REMARK   19  A    between atoms: O_52  and  C_53
REMARK   20  A    between atoms: C_53  and  C_54
REMARK   21  A    between atoms: C_58  and  O_60
REMARK   22  A    between atoms: C_61  and  O_63
REMARK   23  A    between atoms: C_64  and  O_66
REMARK                            x       y       z     vdW  Elec       q    Type
REMARK                         _______ _______ _______ _____ _____    ______ ____
ROOT
ATOM      1  C   UNL     1       0.281   0.449  -1.519  1.00  0.00    +0.000 C 
ATOM      2  C   UNL     1      -0.380  -0.839  -0.969  1.00  0.00    +0.000 C 
ATOM      3  C   UNL     1      -1.712  -0.392  -0.383  1.00  0.00    +0.000 C 
ATOM      4  C   UNL     1      -2.399  -1.338   0.613  1.00  0.00    +0.000 C 
ATOM      5  C   UNL     1      -2.643  -2.716  -0.024  1.00  0.00    +0.000 C 
ATOM      6  C   UNL     1      -3.622  -3.561   0.730  1.00  0.00    +0.000 C 
ATOM      7  C   UNL     1      -4.434  -3.110   1.702  1.00  0.00    +0.000 C 
ATOM      8  C   UNL     1      -5.367  -4.065   2.415  1.00  0.00    +0.000 C 
ATOM      9  C   UNL     1      -6.804  -3.542   2.465  1.00  0.00    +0.000 C 
ATOM     10  C   UNL     1      -6.860  -2.127   3.032  1.00  0.00    +0.000 C 
ATOM     11  C   UNL     1      -5.960  -1.177   2.244  1.00  0.00    +0.000 C 
ATOM     12  C   UNL     1      -4.475  -1.637   2.138  1.00  0.00    +0.000 C 
ATOM     13  C   UNL     1      -3.805  -1.532   3.529  1.00  0.00    +0.000 C 
ATOM     14  C   UNL     1      -3.746  -0.719   1.076  1.00  0.00    +0.000 C 
ATOM     15  C   UNL     1      -3.595   0.759   1.516  1.00  0.00    +0.000 C 
ATOM     16  C   UNL     1      -2.803   1.627   0.522  1.00  0.00    +0.000 C 
ATOM     17  C   UNL     1      -1.422   1.025   0.179  1.00  0.00    +0.000 C 
ATOM     18  C   UNL     1      -0.544   0.996   1.452  1.00  0.00    +0.000 C 
ATOM     19  C   UNL     1      -0.647   1.648  -1.047  1.00  0.00    +0.000 C 
ENDROOT
BRANCH  19  20
ATOM     20  C   UNL     1       0.027   3.049  -0.917  1.00  0.00    +0.000 C 
ATOM     21  C   UNL     1       1.392   3.165  -0.231  1.00  0.00    +0.000 C 
BRANCH  20  22
ATOM     22  C   UNL     1      -0.910   4.094  -0.296  1.00  0.00    +0.000 C 
ATOM     23  O   UNL     1      -0.803   4.429   0.886  1.00  0.00    +0.000 OA
BRANCH  22  24
ATOM     24  C   UNL     1      -1.972   4.707  -1.203  1.00  0.00    +0.000 C 
BRANCH  24  25
ATOM     25  C   UNL     1      -2.644   5.924  -0.563  1.00  0.00    +0.000 C 
BRANCH  25  26
ATOM     26  C   UNL     1      -3.724   6.607  -1.423  1.00  0.00    +0.000 C 
ATOM     27  C   UNL     1      -3.158   7.180  -2.722  1.00  0.00    +0.000 C 
ATOM     28  C   UNL     1      -4.905   5.681  -1.716  1.00  0.00    +0.000 C 
ENDBRANCH  25  26
ENDBRANCH  24  25
ENDBRANCH  22  24
ENDBRANCH  20  22
ENDBRANCH  19  20
BRANCH  19  29
ATOM     29  O   UNL     1      -1.629   1.814  -2.115  1.00  0.00    +0.000 OA
ATOM     30  H   UNL     1      -1.156   1.950  -2.955  1.00  0.00    +0.000 HD
ENDBRANCH  19  29
BRANCH   9  31
ATOM     31  O   UNL     1      -7.610  -4.404   3.267  1.00  0.00    +0.000 OA
ATOM     32  H   UNL     1      -7.252  -4.391   4.172  1.00  0.00    +0.000 HD
ENDBRANCH   9  31
BRANCH   1  33
ATOM     33  O   UNL     1       1.609   0.521  -1.016  1.00  0.00    +0.000 OA
BRANCH  33  38
ATOM     34  C   UNL     1       4.949  -1.118  -1.560  1.00  0.00    +0.000 C 
ATOM     35  C   UNL     1       4.554  -1.596  -2.969  1.00  0.00    +0.000 C 
ATOM     36  C   UNL     1       3.132  -2.176  -2.944  1.00  0.00    +0.000 C 
ATOM     37  O   UNL     1       2.247  -1.514  -2.040  1.00  0.00    +0.000 OA
ATOM     38  C   UNL     1       2.586  -0.152  -1.825  1.00  0.00    +0.000 C 
ATOM     39  C   UNL     1       3.956  -0.023  -1.108  1.00  0.00    +0.000 C 
BRANCH  35  40
ATOM     40  O   UNL     1       5.492  -2.546  -3.475  1.00  0.00    +0.000 OA
ATOM     41  H   UNL     1       5.146  -2.910  -4.308  1.00  0.00    +0.000 HD
ENDBRANCH  35  40
BRANCH  39  42
ATOM     42  O   UNL     1       4.480   1.288  -1.448  1.00  0.00    +0.000 OA
BRANCH  42  43
ATOM     43  C   UNL     1       5.315   1.849  -0.532  1.00  0.00    +0.000 C 
ATOM     44  C   UNL     1       5.727   3.216  -0.981  1.00  0.00    +0.000 C 
ATOM     45  O   UNL     1       5.687   1.318   0.503  1.00  0.00    +0.000 OA
ENDBRANCH  42  43
ENDBRANCH  39  42
BRANCH  34  46
ATOM     46  O   UNL     1       4.901  -2.259  -0.681  1.00  0.00    +0.000 OA
BRANCH  46  47
ATOM     47  C   UNL     1       5.726  -2.126   0.477  1.00  0.00    +0.000 C 
ATOM     48  O   UNL     1       7.115  -2.199   0.150  1.00  0.00    +0.000 OA
ATOM     49  C   UNL     1       7.471  -3.393  -0.564  1.00  0.00    +0.000 C 
ATOM     50  C   UNL     1       6.709  -4.641  -0.107  1.00  0.00    +0.000 C 
ATOM     51  C   UNL     1       6.284  -4.458   1.345  1.00  0.00    +0.000 C 
ATOM     52  C   UNL     1       5.366  -3.238   1.495  1.00  0.00    +0.000 C 
BRANCH  52  53
ATOM     53  O   UNL     1       5.489  -2.782   2.858  1.00  0.00    +0.000 OA
ATOM     54  H   UNL     1       6.322  -2.278   2.921  1.00  0.00    +0.000 HD
ENDBRANCH  52  53
BRANCH  51  55
ATOM     55  O   UNL     1       5.623  -5.649   1.808  1.00  0.00    +0.000 OA
ATOM     56  H   UNL     1       5.282  -5.431   2.698  1.00  0.00    +0.000 HD
ENDBRANCH  51  55
BRANCH  50  57
ATOM     57  O   UNL     1       7.528  -5.807  -0.234  1.00  0.00    +0.000 OA
ATOM     58  H   UNL     1       7.068  -6.492   0.294  1.00  0.00    +0.000 HD
ENDBRANCH  50  57
ENDBRANCH  46  47
ENDBRANCH  34  46
ENDBRANCH  33  38
ENDBRANCH   1  33
TORSDOF 17
