REMARK  Name = /srv/my_project/app/compsite/backup/Dave/CORINA_stuff/newPDBs/SANC00668.pdb
AUTHORGENERATED BY OPEN BABEL 2.3.2
REMARK  23 active torsions:
REMARK  status: ('A' for Active; 'I' for Inactive)
REMARK    1  A    between atoms: C_11  and  C_12
REMARK    2  A    between atoms: C_16  and  O_18
REMARK    3  A    between atoms: O_18  and  C_19
REMARK    4  A    between atoms: C_22  and  C_24
REMARK    5  A    between atoms: C_25  and  O_27
REMARK    6  A    between atoms: C_28  and  O_30
REMARK    7  A    between atoms: C_31  and  O_33
REMARK    8  A    between atoms: C_34  and  C_36
REMARK    9  A    between atoms: C_36  and  C_38
REMARK   10  A    between atoms: C_36  and  C_39
REMARK   11  A    between atoms: C_39  and  O_41
REMARK   12  A    between atoms: C_39  and  C_42
REMARK   13  A    between atoms: C_42  and  C_43
REMARK   14  A    between atoms: C_44  and  C_45
REMARK   15  A    between atoms: C_44  and  C_46
REMARK   16  A    between atoms: C_47  and  C_48
REMARK   17  A    between atoms: C_49  and  O_51
REMARK   18  A    between atoms: O_51  and  C_52
REMARK   19  A    between atoms: C_55  and  C_57
REMARK   20  A    between atoms: C_58  and  O_60
REMARK   21  A    between atoms: C_61  and  O_63
REMARK   22  A    between atoms: C_64  and  O_66
REMARK   23  A    between atoms: C_68  and  O_70
REMARK                            x       y       z     vdW  Elec       q    Type
REMARK                         _______ _______ _______ _____ _____    ______ ____
ROOT
ATOM      1  C   UNL     1       3.768  -2.390  -0.774  1.00  0.00    +0.000 C 
ATOM      2  C   UNL     1       2.684  -3.386  -1.197  1.00  0.00    +0.000 C 
ATOM      3  C   UNL     1       1.349  -3.054  -0.545  1.00  0.00    +0.000 C 
ATOM      4  C   UNL     1       0.911  -1.607  -0.810  1.00  0.00    +0.000 C 
ATOM      5  C   UNL     1       2.027  -0.592  -0.397  1.00  0.00    +0.000 C 
ATOM      6  C   UNL     1       1.526   0.869  -0.513  1.00  0.00    +0.000 C 
ATOM      7  C   UNL     1       0.150   1.127   0.130  1.00  0.00    +0.000 C 
ATOM      8  C   UNL     1      -0.929   0.142  -0.351  1.00  0.00    +0.000 C 
ATOM      9  C   UNL     1      -1.236   0.388  -1.848  1.00  0.00    +0.000 C 
ATOM     10  C   UNL     1      -0.380  -1.275  -0.050  1.00  0.00    +0.000 C 
ATOM     11  C   UNL     1      -1.582  -2.188  -0.253  1.00  0.00    +0.000 C 
ATOM     12  C   UNL     1      -2.794  -1.351   0.205  1.00  0.00    +0.000 C 
ATOM     13  C   UNL     1      -2.239   0.086   0.509  1.00  0.00    +0.000 C 
ATOM     14  C   UNL     1       3.407  -0.903  -1.121  1.00  0.00    +0.000 C 
ATOM     15  C   UNL     1       3.269  -0.693  -2.654  1.00  0.00    +0.000 C 
ATOM     16  C   UNL     1       4.573   0.010  -0.577  1.00  0.00    +0.000 C 
ATOM     17  C   UNL     1       5.959  -0.448  -1.063  1.00  0.00    +0.000 C 
ATOM     18  C   UNL     1       6.235  -1.917  -0.782  1.00  0.00    +0.000 C 
ATOM     19  C   UNL     1       5.134  -2.821  -1.320  1.00  0.00    +0.000 C 
ENDROOT
BRANCH  18  20
ATOM     20  O   UNL     1       7.484  -2.285  -1.359  1.00  0.00    +0.000 OA
ATOM     21  H   UNL     1       7.403  -2.219  -2.326  1.00  0.00    +0.000 HD
ENDBRANCH  18  20
BRANCH  13  22
ATOM     22  C   UNL     1      -3.299   1.226   0.391  1.00  0.00    +0.000 C 
ATOM     23  C   UNL     1      -2.695   2.633   0.480  1.00  0.00    +0.000 C 
BRANCH  22  24
ATOM     24  C   UNL     1      -4.481   1.098   1.411  1.00  0.00    +0.000 C 
BRANCH  24  25
ATOM     25  O   UNL     1      -5.319  -0.014   1.077  1.00  0.00    +0.000 OA
ATOM     26  H   UNL     1      -5.516   0.042   0.117  1.00  0.00    +0.000 HD
ENDBRANCH  24  25
BRANCH  24  27
ATOM     27  C   UNL     1      -4.127   0.926   2.903  1.00  0.00    +0.000 C 
BRANCH  27  28
ATOM     28  C   UNL     1      -3.355   2.046   3.540  1.00  0.00    +0.000 C 
ATOM     29  C   UNL     1      -3.858   3.155   4.118  1.00  0.00    +0.000 C 
ATOM     30  C   UNL     1      -5.322   3.491   4.196  1.00  0.00    +0.000 C 
ATOM     31  C   UNL     1      -2.948   4.180   4.740  1.00  0.00    +0.000 C 
ENDBRANCH  27  28
ENDBRANCH  24  27
ENDBRANCH  22  24
ENDBRANCH  13  22
BRANCH  16  32
ATOM     32  O   UNL     1       4.365   1.361  -1.010  1.00  0.00    +0.000 OA
BRANCH  32  33
ATOM     33  C   UNL     1       5.044   2.353  -0.231  1.00  0.00    +0.000 C 
ATOM     34  O   UNL     1       4.671   2.303   1.139  1.00  0.00    +0.000 OA
ATOM     35  C   UNL     1       5.444   3.190   1.967  1.00  0.00    +0.000 C 
ATOM     36  C   UNL     1       6.603   2.414   2.587  1.00  0.00    +0.000 C 
ATOM     37  C   UNL     1       5.934   4.451   1.228  1.00  0.00    +0.000 C 
ATOM     38  C   UNL     1       4.900   4.861   0.178  1.00  0.00    +0.000 C 
ATOM     39  C   UNL     1       4.659   3.726  -0.827  1.00  0.00    +0.000 C 
BRANCH  39  40
ATOM     40  O   UNL     1       5.418   3.978  -2.029  1.00  0.00    +0.000 OA
ATOM     41  H   UNL     1       5.191   3.245  -2.635  1.00  0.00    +0.000 HD
ENDBRANCH  39  40
BRANCH  38  42
ATOM     42  O   UNL     1       5.349   6.055  -0.483  1.00  0.00    +0.000 OA
ATOM     43  H   UNL     1       5.615   5.763  -1.382  1.00  0.00    +0.000 HD
ENDBRANCH  38  42
BRANCH  37  44
ATOM     44  O   UNL     1       6.149   5.523   2.150  1.00  0.00    +0.000 OA
ATOM     45  H   UNL     1       6.156   6.334   1.601  1.00  0.00    +0.000 HD
ENDBRANCH  37  44
ENDBRANCH  32  33
ENDBRANCH  16  32
BRANCH  12  46
ATOM     46  O   UNL     1      -3.756  -1.305  -0.848  1.00  0.00    +0.000 OA
BRANCH  46  47
ATOM     47  C   UNL     1      -4.677  -2.404  -0.842  1.00  0.00    +0.000 C 
ATOM     48  O   UNL     1      -4.008  -3.602  -1.251  1.00  0.00    +0.000 OA
ATOM     49  C   UNL     1      -4.733  -4.457  -2.138  1.00  0.00    +0.000 C 
ATOM     50  C   UNL     1      -4.043  -5.816  -2.108  1.00  0.00    +0.000 C 
ATOM     51  C   UNL     1      -6.207  -4.534  -1.727  1.00  0.00    +0.000 C 
ATOM     52  C   UNL     1      -6.856  -3.155  -1.917  1.00  0.00    +0.000 C 
ATOM     53  C   UNL     1      -5.855  -2.002  -1.758  1.00  0.00    +0.000 C 
BRANCH  53  54
ATOM     54  O   UNL     1      -6.540  -0.829  -1.277  1.00  0.00    +0.000 OA
ATOM     55  H   UNL     1      -7.302  -1.181  -0.765  1.00  0.00    +0.000 HD
ENDBRANCH  53  54
BRANCH  52  56
ATOM     56  O   UNL     1      -7.924  -3.001  -0.960  1.00  0.00    +0.000 OA
ATOM     57  H   UNL     1      -8.558  -3.718  -1.157  1.00  0.00    +0.000 HD
ENDBRANCH  52  56
BRANCH  51  58
ATOM     58  O   UNL     1      -6.960  -5.488  -2.476  1.00  0.00    +0.000 OA
ATOM     59  H   UNL     1      -6.674  -6.376  -2.197  1.00  0.00    +0.000 HD
ENDBRANCH  51  58
ENDBRANCH  46  47
ENDBRANCH  12  46
TORSDOF 16
