REMARK  Name = SANCDB_00735_minRM1.pdb
AUTHORGENERATED BY OPEN BABEL 2.3.2
REMARK  3 active torsions:
REMARK  status: ('A' for Active; 'I' for Inactive)
REMARK    1  A    between atoms: C_1  and  C_2
REMARK    2  A    between atoms: C_3  and  C_4
REMARK    3  A    between atoms: C_5  and  C_6
REMARK                            x       y       z     vdW  Elec       q    Type
REMARK                         _______ _______ _______ _____ _____    ______ ____
ROOT
ATOM      1  C   UNL     1      -2.435  -1.963  -1.330  1.00  0.00    +0.000 C 
ATOM      2  C   UNL     1      -1.517  -1.106  -0.491  1.00  0.00    +0.000 C 
ATOM      3  C   UNL     1      -1.519   0.250  -0.494  1.00  0.00    +0.000 C 
ATOM      4  C   UNL     1      -2.385   1.062  -1.434  1.00  0.00    +0.000 C 
ATOM      5  C   UNL     1      -0.571   1.062   0.417  1.00  0.00    +0.000 C 
ATOM      6  C   UNL     1      -1.298   2.288   1.030  1.00  0.00    +0.000 C 
ATOM      7  C   UNL     1       0.609   1.581  -0.479  1.00  0.00    +0.000 C 
ATOM      8  C   UNL     1       2.027   1.446   0.080  1.00  0.00    +0.000 C 
ATOM      9  C   UNL     1       2.482   0.028   0.111  1.00  0.00    +0.000 A 
ATOM     10  C   UNL     1       3.716  -0.507  -0.346  1.00  0.00    +0.000 A 
ATOM     11  C   UNL     1       3.669  -1.858  -0.102  1.00  0.00    +0.000 A 
ATOM     12  O   UNL     1       2.490  -2.196   0.478  1.00  0.00    +0.000 OA
ATOM     13  C   UNL     1       1.766  -1.049   0.599  1.00  0.00    +0.000 A 
ATOM     14  C   UNL     1       0.423  -1.169   1.240  1.00  0.00    +0.000 C 
ATOM     15  C   UNL     1      -0.588  -1.937   0.380  1.00  0.00    +0.000 C 
ATOM     16  C   UNL     1      -0.143   0.193   1.634  1.00  0.00    +0.000 C 
ENDROOT
TORSDOF 0
