REMARK  Name = /srv/my_project/app/compsite/backup/Dave/CORINA_stuff/newPDBs/SANC00125.pdb
AUTHORGENERATED BY OPEN BABEL 2.3.2
REMARK  2 active torsions:
REMARK  status: ('A' for Active; 'I' for Inactive)
REMARK    1  A    between atoms: C_11  and  O_12
REMARK    2  A    between atoms: C_14  and  O_15
REMARK                            x       y       z     vdW  Elec       q    Type
REMARK                         _______ _______ _______ _____ _____    ______ ____
ROOT
ATOM      1  O   UNL     1      -2.943   2.693  -1.871  1.00  0.00    +0.000 OA
ATOM      2  C   UNL     1      -2.262   1.829  -1.333  1.00  0.00    +0.000 C 
ATOM      3  C   UNL     1      -0.674   1.881  -1.212  1.00  0.00    +0.000 C 
ATOM      4  N   UNL     1      -0.260   3.238  -0.851  1.00  0.00    +0.000 NA
ATOM      5  C   UNL     1       1.185   3.408  -0.846  1.00  0.00    +0.000 C 
ATOM      6  C   UNL     1       1.839   2.494   0.185  1.00  0.00    +0.000 C 
ATOM      7  C   UNL     1       1.452   1.009   0.014  1.00  0.00    +0.000 C 
ATOM      8  C   UNL     1       2.175   0.350  -1.151  1.00  0.00    +0.000 C 
ATOM      9  C   UNL     1       2.413  -0.972  -1.177  1.00  0.00    +0.000 C 
ATOM     10 BR   UNL     1       3.204  -1.789  -2.661  1.00  0.00    +0.000 Br
ATOM     11  C   UNL     1       2.053  -1.899  -0.041  1.00  0.00    +0.000 C 
ATOM     12  C   UNL     1       1.325  -1.208   1.160  1.00  0.00    +0.000 C 
ATOM     13  C   UNL     1       1.798   0.250   1.328  1.00  0.00    +0.000 C 
ATOM     14  N   UNL     1      -0.207  -1.193   1.098  1.00  0.00    +0.000 NA
ATOM     15  C   UNL     1      -0.754  -0.194   0.208  1.00  0.00    +0.000 C 
ATOM     16  C   UNL     1      -0.037   0.843  -0.265  1.00  0.00    +0.000 C 
ATOM     17  C   UNL     1      -2.133  -0.300  -0.068  1.00  0.00    +0.000 A 
ATOM     18  C   UNL     1      -2.970  -1.350   0.330  1.00  0.00    +0.000 A 
ATOM     19  C   UNL     1      -2.421  -2.501   1.095  1.00  0.00    +0.000 C 
ATOM     20  C   UNL     1      -0.880  -2.573   0.888  1.00  0.00    +0.000 C 
ATOM     21  C   UNL     1      -4.221  -1.010  -0.134  1.00  0.00    +0.000 A 
ATOM     22 BR   UNL     1      -5.815  -2.015   0.086  1.00  0.00    +0.000 Br
ATOM     23  N   UNL     1      -4.144   0.198  -0.795  1.00  0.00    +0.000 N 
ATOM     24  H   UNL     1      -4.920   0.683  -1.235  1.00  0.00    +0.000 HD
ATOM     25  C   UNL     1      -2.841   0.634  -0.769  1.00  0.00    +0.000 A 
ATOM     26  H   UNL     1      -0.691   3.560   0.015  1.00  0.00    +0.000 HD
ATOM     27  H   UNL     1      -0.504  -0.915   2.047  1.00  0.00    +0.000 HD
ENDROOT
BRANCH  11  28
ATOM     28  O   UNL     1       3.273  -2.442   0.481  1.00  0.00    +0.000 OA
ATOM     29  H   UNL     1       3.771  -2.837  -0.263  1.00  0.00    +0.000 HD
ENDBRANCH  11  28
BRANCH  13  30
ATOM     30  O   UNL     1       3.165   0.365   1.706  1.00  0.00    +0.000 OA
ATOM     31  H   UNL     1       3.731  -0.225   1.170  1.00  0.00    +0.000 HD
ENDBRANCH  13  30
TORSDOF 2
