REMARK  Name = /srv/my_project/app/compsite/backup/Dave/CORINA_stuff/newPDBs/SANC00178.pdb
AUTHORGENERATED BY OPEN BABEL 2.3.2
REMARK  14 active torsions:
REMARK  status: ('A' for Active; 'I' for Inactive)
REMARK    1  A    between atoms: C_1  and  C_2
REMARK    2  A    between atoms: C_13  and  O_20
REMARK    3  A    between atoms: C_16  and  C_18
REMARK    4  A    between atoms: C_16  and  C_19
REMARK    5  A    between atoms: C_32  and  C_79
REMARK    6  A    between atoms: C_40  and  C_78
REMARK    7  A    between atoms: C_50  and  O_74
REMARK    8  A    between atoms: C_52  and  C_73
REMARK    9  A    between atoms: C_57  and  O_72
REMARK   10  A    between atoms: C_58  and  C_71
REMARK   11  A    between atoms: C_62  and  O_70
REMARK   12  A    between atoms: C_65  and  C_67
REMARK   13  A    between atoms: C_65  and  C_68
REMARK   14  A    between atoms: C_68  and  O_69
REMARK                            x       y       z     vdW  Elec       q    Type
REMARK                         _______ _______ _______ _____ _____    ______ ____
ROOT
ATOM      1  C   UNL     1     -11.937  -0.181  -2.512  1.00  0.00    +0.000 C 
ATOM      2  C   UNL     1     -10.875  -0.548  -1.472  1.00  0.00    +0.000 C 
ATOM      3  C   UNL     1      -9.639   0.373  -1.583  1.00  0.00    +0.000 C 
ATOM      4  C   UNL     1      -9.893   1.859  -1.292  1.00  0.00    +0.000 C 
ATOM      5  C   UNL     1      -8.638   2.287  -0.609  1.00  0.00    +0.000 C 
ATOM      6  C   UNL     1      -7.888   1.249  -0.214  1.00  0.00    +0.000 C 
ATOM      7  C   UNL     1      -8.525  -0.073  -0.601  1.00  0.00    +0.000 C 
ATOM      8  C   UNL     1      -9.099  -0.887   0.568  1.00  0.00    +0.000 C 
ATOM      9  O   UNL     1     -10.379  -0.405   0.962  1.00  0.00    +0.000 OA
ATOM     10  C   UNL     1     -11.416  -0.623  -0.011  1.00  0.00    +0.000 C 
ATOM     11  C   UNL     1     -12.146  -1.947   0.362  1.00  0.00    +0.000 C 
ATOM     12  C   UNL     1     -13.609  -1.572   0.323  1.00  0.00    +0.000 C 
ATOM     13  C   UNL     1     -13.590  -0.112   0.746  1.00  0.00    +0.000 C 
ATOM     14  O   UNL     1     -12.388   0.432   0.182  1.00  0.00    +0.000 OA
ATOM     15  C   UNL     1     -13.541   0.060   2.267  1.00  0.00    +0.000 C 
ATOM     16  C   UNL     1     -14.780   0.656   0.175  1.00  0.00    +0.000 C 
ATOM     17  C   UNL     1      -7.447  -0.914  -1.289  1.00  0.00    +0.000 C 
ATOM     18  O   UNL     1      -7.674  -1.599  -2.287  1.00  0.00    +0.000 OA
ATOM     19  C   UNL     1      -6.096  -0.984  -0.600  1.00  0.00    +0.000 C 
ATOM     20  C   UNL     1      -5.532   0.422  -0.314  1.00  0.00    +0.000 C 
ATOM     21  C   UNL     1      -6.557   1.258   0.503  1.00  0.00    +0.000 C 
ATOM     22  C   UNL     1      -6.022   2.675   0.774  1.00  0.00    +0.000 C 
ATOM     23  C   UNL     1      -4.643   2.669   1.421  1.00  0.00    +0.000 C 
ATOM     24  C   UNL     1      -3.642   1.871   0.579  1.00  0.00    +0.000 C 
ATOM     25  C   UNL     1      -4.100   0.399   0.346  1.00  0.00    +0.000 C 
ATOM     26  C   UNL     1      -3.078  -0.251  -0.630  1.00  0.00    +0.000 C 
ATOM     27  C   UNL     1      -1.631   0.006  -0.299  1.00  0.00    +0.000 A 
ATOM     28  C   UNL     1      -1.235   1.068   0.511  1.00  0.00    +0.000 A 
ATOM     29  C   UNL     1      -2.234   1.964   1.186  1.00  0.00    +0.000 C 
ATOM     30  N   UNL     1       0.072   1.309   0.780  1.00  0.00    +0.000 NA
ATOM     31  C   UNL     1       0.977   0.472   0.211  1.00  0.00    +0.000 A 
ATOM     32  C   UNL     1       2.427   0.776   0.479  1.00  0.00    +0.000 C 
ATOM     33  C   UNL     1       3.406  -0.399   0.194  1.00  0.00    +0.000 C 
ATOM     34  C   UNL     1       3.016  -0.999  -1.194  1.00  0.00    +0.000 C 
ATOM     35  C   UNL     1       3.996  -2.078  -1.672  1.00  0.00    +0.000 C 
ATOM     36  C   UNL     1       5.422  -1.540  -1.737  1.00  0.00    +0.000 C 
ATOM     37  C   UNL     1       5.878  -0.958  -0.390  1.00  0.00    +0.000 C 
ATOM     38  C   UNL     1       4.883   0.143   0.096  1.00  0.00    +0.000 C 
ATOM     39  C   UNL     1       5.382   0.865   1.377  1.00  0.00    +0.000 C 
ATOM     40  C   UNL     1       6.846   1.344   1.271  1.00  0.00    +0.000 C 
ATOM     41  C   UNL     1       7.819   0.196   0.885  1.00  0.00    +0.000 C 
ATOM     42  C   UNL     1       7.262  -0.362  -0.413  1.00  0.00    +0.000 C 
ATOM     43  C   UNL     1       8.037  -0.053  -1.462  1.00  0.00    +0.000 C 
ATOM     44  C   UNL     1       9.186   0.814  -1.074  1.00  0.00    +0.000 C 
ATOM     45  C   UNL     1       9.255   0.707   0.471  1.00  0.00    +0.000 C 
ATOM     46  C   UNL     1      10.461  -0.230   0.644  1.00  0.00    +0.000 C 
ATOM     47  C   UNL     1      11.324   0.099  -0.583  1.00  0.00    +0.000 C 
ATOM     48  O   UNL     1      10.386   0.300  -1.652  1.00  0.00    +0.000 OA
ATOM     49  C   UNL     1      12.255   1.334  -0.516  1.00  0.00    +0.000 C 
ATOM     50  C   UNL     1      13.616   0.730  -0.254  1.00  0.00    +0.000 C 
ATOM     51  C   UNL     1      13.533  -0.633  -0.942  1.00  0.00    +0.000 C 
ATOM     52  O   UNL     1      12.150  -1.045  -0.868  1.00  0.00    +0.000 OA
ATOM     53  C   UNL     1      13.930  -0.585  -2.423  1.00  0.00    +0.000 C 
ATOM     54  C   UNL     1      11.199  -0.144   1.977  1.00  0.00    +0.000 C 
ATOM     55  C   UNL     1       7.883  -0.860   2.007  1.00  0.00    +0.000 C 
ATOM     56  C   UNL     1       1.574  -1.530  -1.219  1.00  0.00    +0.000 C 
ATOM     57  C   UNL     1       0.582  -0.576  -0.617  1.00  0.00    +0.000 A 
ATOM     58  N   UNL     1      -0.726  -0.824  -0.875  1.00  0.00    +0.000 NA
ATOM     59  C   UNL     1       3.270  -1.441   1.334  1.00  0.00    +0.000 C 
ATOM     60  C   UNL     1      -4.111  -0.418   1.665  1.00  0.00    +0.000 C 
ENDROOT
BRANCH  11  61
ATOM     61  O   UNL     1     -11.876  -3.054  -0.488  1.00  0.00    +0.000 OA
ATOM     62  H   UNL     1     -12.424  -3.799  -0.185  1.00  0.00    +0.000 HD
ENDBRANCH  11  61
BRANCH  49  63
ATOM     63  O   UNL     1      12.320   2.030  -1.772  1.00  0.00    +0.000 OA
ATOM     64  H   UNL     1      11.594   1.659  -2.315  1.00  0.00    +0.000 HD
ENDBRANCH  49  63
BRANCH  45  65
ATOM     65  O   UNL     1       9.563   1.985   1.035  1.00  0.00    +0.000 OA
ATOM     66  H   UNL     1       9.077   2.056   1.885  1.00  0.00    +0.000 HD
ENDBRANCH  45  65
BRANCH  40  67
ATOM     67  O   UNL     1       7.259   1.922   2.514  1.00  0.00    +0.000 OA
ATOM     68  H   UNL     1       6.597   2.597   2.753  1.00  0.00    +0.000 HD
ENDBRANCH  40  67
BRANCH  51  69
ATOM     69  C   UNL     1      14.375  -1.685  -0.197  1.00  0.00    +0.000 C 
BRANCH  69  70
ATOM     70  O   UNL     1      14.171  -2.985  -0.750  1.00  0.00    +0.000 OA
ATOM     71  H   UNL     1      13.211  -3.044  -0.928  1.00  0.00    +0.000 HD
ENDBRANCH  69  70
ENDBRANCH  51  69
TORSDOF 6
