REMARK  Name = /srv/my_project/app/compsite/backup/Dave/CORINA_stuff/newPDBs/SANC00167.pdb
AUTHORGENERATED BY OPEN BABEL 2.3.2
REMARK  4 active torsions:
REMARK  status: ('A' for Active; 'I' for Inactive)
REMARK    1  A    between atoms: C_2  and  C_3
REMARK    2  A    between atoms: C_13  and  O_15
REMARK    3  A    between atoms: C_18  and  C_19
REMARK    4  A    between atoms: C_23  and  C_24
REMARK                            x       y       z     vdW  Elec       q    Type
REMARK                         _______ _______ _______ _____ _____    ______ ____
ROOT
ATOM      1  C   UNL     1      -3.784   0.493  -0.036  1.00  0.00    +0.000 C 
ATOM      2  C   UNL     1      -3.779   1.537   1.109  1.00  0.00    +0.000 C 
ATOM      3  C   UNL     1      -2.300   1.761   1.482  1.00  0.00    +0.000 C 
ATOM      4  C   UNL     1      -1.526   0.980   0.424  1.00  0.00    +0.000 C 
ATOM      5  C   UNL     1      -0.067   0.604   0.705  1.00  0.00    +0.000 C 
ATOM      6  C   UNL     1       0.776   1.861   0.971  1.00  0.00    +0.000 C 
ATOM      7  C   UNL     1       2.250   1.621   0.886  1.00  0.00    +0.000 C 
ATOM      8  C   UNL     1       2.819   0.520   0.364  1.00  0.00    +0.000 C 
ATOM      9  C   UNL     1       4.327   0.377   0.356  1.00  0.00    +0.000 C 
ATOM     10  C   UNL     1       4.865  -0.007  -1.023  1.00  0.00    +0.000 C 
ATOM     11  C   UNL     1       4.152  -1.239  -1.574  1.00  0.00    +0.000 C 
ATOM     12  C   UNL     1       2.638  -1.031  -1.615  1.00  0.00    +0.000 C 
ATOM     13  C   UNL     1       2.005  -0.630  -0.249  1.00  0.00    +0.000 C 
ATOM     14  C   UNL     1       2.074  -1.834   0.721  1.00  0.00    +0.000 C 
ATOM     15  C   UNL     1       0.510  -0.183  -0.507  1.00  0.00    +0.000 C 
ATOM     16  C   UNL     1      -0.423  -1.334  -0.975  1.00  0.00    +0.000 C 
ATOM     17  C   UNL     1      -1.895  -0.918  -1.133  1.00  0.00    +0.000 C 
ATOM     18  C   UNL     1      -2.426  -0.238   0.138  1.00  0.00    +0.000 C 
ATOM     19  C   UNL     1      -2.481  -1.263   1.300  1.00  0.00    +0.000 C 
ENDROOT
BRANCH   1  21
ATOM     20  C   UNL     1      -5.816  -0.520  -1.109  1.00  0.00    +0.000 C 
ATOM     21  C   UNL     1      -5.017  -0.368  -0.045  1.00  0.00    +0.000 C 
ENDBRANCH   1  21
BRANCH  10  22
ATOM     22  O   UNL     1       6.265  -0.270  -0.946  1.00  0.00    +0.000 OA
ATOM     23  H   UNL     1       6.395  -1.026  -0.349  1.00  0.00    +0.000 HD
ENDBRANCH  10  22
TORSDOF 2
