REMARK  Name = /srv/my_project/app/compsite/backup/Dave/CORINA_stuff/newPDBs/SANC00652.pdb
AUTHORGENERATED BY OPEN BABEL 2.3.2
REMARK  7 active torsions:
REMARK  status: ('A' for Active; 'I' for Inactive)
REMARK    1  A    between atoms: C_1  and  C_2
REMARK    2  A    between atoms: C_6  and  C_20
REMARK    3  A    between atoms: C_6  and  C_21
REMARK    4  A    between atoms: C_9  and  O_19
REMARK    5  A    between atoms: C_12  and  C_17
REMARK    6  A    between atoms: C_13  and  C_14
REMARK    7  A    between atoms: C_13  and  O_16
REMARK                            x       y       z     vdW  Elec       q    Type
REMARK                         _______ _______ _______ _____ _____    ______ ____
ROOT
ATOM      1  C   UNL     1       0.446  -0.752  -1.732  1.00  0.00    +0.000 C 
ATOM      2  C   UNL     1       0.447  -0.744  -0.176  1.00  0.00    +0.000 C 
ATOM      3  C   UNL     1      -0.192  -2.087   0.313  1.00  0.00    +0.000 C 
ATOM      4  C   UNL     1      -1.618  -1.979   0.841  1.00  0.00    +0.000 C 
ATOM      5  C   UNL     1      -2.440  -1.009   0.017  1.00  0.00    +0.000 C 
ATOM      6  C   UNL     1      -1.933   0.449   0.156  1.00  0.00    +0.000 C 
ATOM      7  C   UNL     1      -0.360   0.500   0.372  1.00  0.00    +0.000 C 
ATOM      8  C   UNL     1       0.295   1.836  -0.086  1.00  0.00    +0.000 C 
ATOM      9  C   UNL     1       1.794   1.841  -0.039  1.00  0.00    +0.000 C 
ATOM     10  C   UNL     1       2.534   0.736   0.164  1.00  0.00    +0.000 C 
ATOM     11  C   UNL     1       1.941  -0.636   0.368  1.00  0.00    +0.000 C 
ATOM     12  C   UNL     1      -2.434   1.238  -1.072  1.00  0.00    +0.000 C 
ATOM     13  C   UNL     1      -2.633   1.073   1.393  1.00  0.00    +0.000 C 
ENDROOT
BRANCH  11  14
ATOM     14  C   UNL     1       2.808  -1.760  -0.241  1.00  0.00    +0.000 C 
ATOM     15  O   UNL     1       3.054  -2.803   0.366  1.00  0.00    +0.000 OA
ENDBRANCH  11  14
BRANCH  11  16
ATOM     16  O   UNL     1       1.921  -0.819   1.796  1.00  0.00    +0.000 OA
ATOM     17  H   UNL     1       2.331  -1.693   1.966  1.00  0.00    +0.000 HD
ENDBRANCH  11  16
BRANCH  10  18
ATOM     18  C   UNL     1       4.003   0.935   0.212  1.00  0.00    +0.000 C 
ATOM     19  O   UNL     1       4.804   0.013   0.130  1.00  0.00    +0.000 OA
ENDBRANCH  10  18
BRANCH   8  20
ATOM     20  O   UNL     1      -0.149   2.894   0.750  1.00  0.00    +0.000 OA
ATOM     21  H   UNL     1       0.065   3.734   0.313  1.00  0.00    +0.000 HD
ENDBRANCH   8  20
TORSDOF 4
