REMARK  Name = SANCDB_01069_minRM1.pdb
AUTHORGENERATED BY OPEN BABEL 2.3.2
REMARK  5 active torsions:
REMARK  status: ('A' for Active; 'I' for Inactive)
REMARK    1  A    between atoms: C_1  and  C_2
REMARK    2  A    between atoms: C_2  and  C_3
REMARK    3  A    between atoms: C_2  and  N_11
REMARK    4  A    between atoms: C_3  and  C_4
REMARK    5  A    between atoms: C_3  and  O_10
REMARK                            x       y       z     vdW  Elec       q    Type
REMARK                         _______ _______ _______ _____ _____    ______ ____
ROOT
ATOM      1  C   UNL     1      -0.710   0.737  -0.317  1.00  0.00    +0.000 C 
ENDROOT
BRANCH   1   2
ATOM      2  C   UNL     1       0.746   0.323  -0.197  1.00  0.00    +0.000 A 
ATOM      3  C   UNL     1       1.543   0.827   0.841  1.00  0.00    +0.000 A 
ATOM      4  C   UNL     1       2.886   0.461   0.946  1.00  0.00    +0.000 A 
ATOM      5  C   UNL     1       3.448  -0.412   0.017  1.00  0.00    +0.000 A 
ATOM      6  C   UNL     1       2.668  -0.922  -1.018  1.00  0.00    +0.000 A 
ATOM      7  C   UNL     1       1.325  -0.558  -1.125  1.00  0.00    +0.000 A 
ENDBRANCH   1   2
BRANCH   1   9
ATOM      8  C   UNL     1      -3.160   0.019  -0.349  1.00  0.00    +0.000 C 
ATOM      9  C   UNL     1      -1.722  -0.420  -0.051  1.00  0.00    +0.000 C 
BRANCH   9  10
ATOM     10  N   UNL     1      -1.663  -0.924   1.335  1.00  0.00    +0.000 NA
ATOM     11  H   UNL     1      -1.970  -0.195   1.978  1.00  0.00    +0.000 HD
ATOM     12  H   UNL     1      -2.324  -1.693   1.441  1.00  0.00    +0.000 HD
ENDBRANCH   9  10
ENDBRANCH   1   9
BRANCH   1  13
ATOM     13  O   UNL     1      -0.921   1.292  -1.622  1.00  0.00    +0.000 OA
ATOM     14  H   UNL     1      -0.080   1.699  -1.894  1.00  0.00    +0.000 HD
ENDBRANCH   1  13
TORSDOF 4
