REMARK  Name = SANC00596.pdb
AUTHORGENERATED BY OPEN BABEL 2.3.0
REMARK  14 active torsions:
REMARK  status: ('A' for Active; 'I' for Inactive)
REMARK    1  A    between atoms: C_4  and  C_29
REMARK    2  A    between atoms: C_5  and  C_34
REMARK    3  A    between atoms: C_6  and  N_39
REMARK    4  A    between atoms: C_7  and  N_39
REMARK    5  A    between atoms: C_8  and  C_41
REMARK    6  A    between atoms: C_9  and  C_42
REMARK    7  A    between atoms: C_10  and  C_43
REMARK    8  A    between atoms: O_13  and  C_33
REMARK    9  A    between atoms: N_25  and  C_36
REMARK   10  A    between atoms: O_27  and  C_29
REMARK   11  A    between atoms: O_27  and  C_35
REMARK   12  A    between atoms: C_30  and  C_32
REMARK   13  A    between atoms: C_34  and  N_39
REMARK   14  A    between atoms: C_34  and  C_44
REMARK                            x       y       z     vdW  Elec       q    Type
REMARK                         _______ _______ _______ _____ _____    ______ ____
ROOT
ATOM      1  C   UNL     1       3.149   1.582  -2.333  1.00  0.00    +0.000 C 
ATOM      2  C   UNL     1      -3.529  -2.016   0.889  1.00  0.00    +0.000 C 
ATOM      3  C   UNL     1      -1.487   1.257  -0.250  1.00  0.00    +0.000 C 
ATOM      4  C   UNL     1      -1.823  -1.699  -1.695  1.00  0.00    +0.000 C 
ATOM      5  C   UNL     1      -3.111  -0.973  -1.362  1.00  0.00    +0.000 C 
ATOM      6  C   UNL     1       2.654  -0.350  -3.856  1.00  0.00    +0.000 C 
ATOM      7  C   UNL     1       0.414  -2.683  -1.230  1.00  0.00    +0.000 C 
ATOM      8  C   UNL     1      -2.176   0.469   2.012  1.00  0.00    +0.000 C 
ATOM      9  C   UNL     1       0.718  -0.601   0.953  1.00  0.00    +0.000 C 
ATOM     10  O   UNL     1       3.198  -1.671  -4.060  1.00  0.00    +0.000 OA
ATOM     11  O   UNL     1       2.814  -2.593  -0.638  1.00  0.00    +0.000 OA
ATOM     12  C   UNL     1      -0.750  -1.788  -0.874  1.00  0.00    +0.000 C 
ATOM     13  C   UNL     1      -3.668   0.855   1.967  1.00  0.00    +0.000 C 
ATOM     14  C   UNL     1       1.741   0.077  -0.001  1.00  0.00    +0.000 C 
ATOM     15  C   UNL     1       4.280  -0.701  -2.222  1.00  0.00    +0.000 C 
ATOM     16  C   UNL     1       3.878  -2.042  -2.842  1.00  0.00    +0.000 C 
ATOM     17  C   UNL     1       2.869  -2.802  -2.044  1.00  0.00    +0.000 C 
ATOM     18  C   UNL     1      -0.690  -1.066   0.478  1.00  0.00    +0.000 C 
ATOM     19  C   UNL     1       2.959   0.065  -2.391  1.00  0.00    +0.000 C 
ATOM     20  C   UNL     1      -3.213  -0.678   0.147  1.00  0.00    +0.000 C 
ATOM     21  C   UNL     1      -1.842  -0.009   0.587  1.00  0.00    +0.000 C 
ATOM     22  C   UNL     1      -4.240   0.407   0.588  1.00  0.00    +0.000 C 
ATOM     23  C   UNL     1       1.787  -0.473  -1.456  1.00  0.00    +0.000 C 
ATOM     24  C   UNL     1       1.744  -2.003  -1.420  1.00  0.00    +0.000 C 
ENDROOT
BRANCH  15  26
ATOM     25  O   UNL     1       6.242   1.029  -1.157  1.00  0.00    +0.000 OA
ATOM     26  N   UNL     1       4.833  -0.756  -0.883  1.00  0.00    +0.000 N 
ATOM     27  C   UNL     1       5.783   0.142  -0.445  1.00  0.00    +0.000 C 
ATOM     28  H   UNL     1       4.511  -1.500  -0.273  1.00  0.00    +0.000 HD
BRANCH  27  34
ATOM     29  C   UNL     1       7.326  -0.307   3.531  1.00  0.00    +0.000 A 
ATOM     30  C   UNL     1       6.024  -0.723   3.255  1.00  0.00    +0.000 A 
ATOM     31  C   UNL     1       8.107   0.257   2.524  1.00  0.00    +0.000 A 
ATOM     32  C   UNL     1       5.501  -0.586   1.967  1.00  0.00    +0.000 A 
ATOM     33  C   UNL     1       7.586   0.399   1.236  1.00  0.00    +0.000 A 
ATOM     34  C   UNL     1       6.284  -0.032   0.947  1.00  0.00    +0.000 A 
ENDBRANCH  27  34
ENDBRANCH  15  26
BRANCH  22  36
ATOM     35  C   UNL     1      -6.345  -0.455  -0.626  1.00  0.00    +0.000 C 
ATOM     36  C   UNL     1      -5.759   0.062   0.695  1.00  0.00    +0.000 C 
BRANCH  36  39
ATOM     37  C   UNL     1      -7.708   0.838   1.956  1.00  0.00    +0.000 C 
ATOM     38  C   UNL     1      -6.811   2.275   0.256  1.00  0.00    +0.000 C 
ATOM     39  N   UNL     1      -6.490   1.240   1.245  1.00  0.00    +0.000 NA
ENDBRANCH  36  39
ENDBRANCH  22  36
BRANCH  13  40
ATOM     40  O   UNL     1      -3.823   2.259   2.128  1.00  0.00    +0.000 OA
ATOM     41  H   UNL     1      -4.789   2.406   2.059  1.00  0.00    +0.000 HD
ENDBRANCH  13  40
BRANCH  14  42
ATOM     42  O   UNL     1       1.509   1.498  -0.020  1.00  0.00    +0.000 OA
BRANCH  42  45
ATOM     43  C   UNL     1       1.750   3.666   0.847  1.00  0.00    +0.000 C 
ATOM     44  O   UNL     1       2.646   1.729   1.968  1.00  0.00    +0.000 OA
ATOM     45  C   UNL     1       2.038   2.207   1.021  1.00  0.00    +0.000 C 
ENDBRANCH  42  45
ENDBRANCH  14  42
TORSDOF 7
