REMARK  Name = SANCDB_01004_minRM1.pdb
AUTHORGENERATED BY OPEN BABEL 2.3.2
REMARK  4 active torsions:
REMARK  status: ('A' for Active; 'I' for Inactive)
REMARK    1  A    between atoms: C_1  and  C_2
REMARK    2  A    between atoms: C_2  and  C_23
REMARK    3  A    between atoms: C_9  and  O_22
REMARK    4  A    between atoms: C_20  and  O_21
REMARK                            x       y       z     vdW  Elec       q    Type
REMARK                         _______ _______ _______ _____ _____    ______ ____
ROOT
ATOM      1  C   UNL     1      -4.544   0.740  -0.990  1.00  0.00    +0.000 C 
ATOM      2  C   UNL     1      -3.620   0.360   0.173  1.00  0.00    +0.000 C 
ATOM      3  C   UNL     1      -2.649   1.487   0.429  1.00  0.00    +0.000 C 
ATOM      4  C   UNL     1      -1.323   1.351   0.344  1.00  0.00    +0.000 C 
ATOM      5  C   UNL     1      -0.777   0.045  -0.015  1.00  0.00    +0.000 A 
ATOM      6  C   UNL     1      -1.664  -1.007  -0.255  1.00  0.00    +0.000 A 
ATOM      7  O   UNL     1      -3.024  -0.905  -0.177  1.00  0.00    +0.000 OA
ATOM      8  C   UNL     1      -1.186  -2.271  -0.600  1.00  0.00    +0.000 A 
ATOM      9  C   UNL     1       0.186  -2.495  -0.709  1.00  0.00    +0.000 A 
ATOM     10  C   UNL     1       1.095  -1.455  -0.473  1.00  0.00    +0.000 A 
ATOM     11  C   UNL     1       0.611  -0.185  -0.126  1.00  0.00    +0.000 A 
ATOM     12  O   UNL     1       1.433   0.895   0.124  1.00  0.00    +0.000 OA
ATOM     13  C   UNL     1       2.789   0.733   0.031  1.00  0.00    +0.000 A 
ATOM     14  C   UNL     1       3.403  -0.465  -0.302  1.00  0.00    +0.000 A 
ATOM     15  C   UNL     1       2.562  -1.638  -0.575  1.00  0.00    +0.000 A 
ATOM     16  O   UNL     1       3.099  -2.697  -0.870  1.00  0.00    +0.000 OA
ATOM     17  C   UNL     1       4.800  -0.551  -0.376  1.00  0.00    +0.000 A 
ATOM     18  C   UNL     1       5.583   0.575  -0.114  1.00  0.00    +0.000 A 
ATOM     19  C   UNL     1       4.971   1.782   0.222  1.00  0.00    +0.000 A 
ATOM     20  C   UNL     1       3.583   1.853   0.292  1.00  0.00    +0.000 A 
ATOM     21  C   UNL     1      -4.453   0.112   1.435  1.00  0.00    +0.000 C 
ENDROOT
BRANCH  20  22
ATOM     22  O   UNL     1       3.026   3.057   0.625  1.00  0.00    +0.000 OA
ATOM     23  H   UNL     1       2.060   2.932   0.628  1.00  0.00    +0.000 HD
ENDBRANCH  20  22
BRANCH   9  24
ATOM     24  O   UNL     1       0.616  -3.745  -1.049  1.00  0.00    +0.000 OA
ATOM     25  H   UNL     1      -0.136  -4.344  -1.176  1.00  0.00    +0.000 HD
ENDBRANCH   9  24
TORSDOF 2
