REMARK  Name = /srv/my_project/app/compsite/backup/Dave/CORINA_stuff/newPDBs/SANC00374.pdb
AUTHORGENERATED BY OPEN BABEL 2.3.2
REMARK  4 active torsions:
REMARK  status: ('A' for Active; 'I' for Inactive)
REMARK    1  A    between atoms: C_7  and  O_8
REMARK    2  A    between atoms: O_8  and  C_9
REMARK    3  A    between atoms: C_10  and  O_11
REMARK    4  A    between atoms: N_23  and  C_24
REMARK                            x       y       z     vdW  Elec       q    Type
REMARK                         _______ _______ _______ _____ _____    ______ ____
ROOT
ATOM      1  C   UNL     1      -1.439  -1.165   0.721  1.00  0.00    +0.000 C 
ATOM      2  C   UNL     1      -0.527  -2.023  -0.192  1.00  0.00    +0.000 C 
ATOM      3  C   UNL     1       0.892  -1.498  -0.169  1.00  0.00    +0.000 A 
ATOM      4  C   UNL     1       1.968  -2.399  -0.210  1.00  0.00    +0.000 A 
ATOM      5  C   UNL     1       3.280  -1.938  -0.119  1.00  0.00    +0.000 A 
ATOM      6  C   UNL     1       3.520  -0.578   0.044  1.00  0.00    +0.000 A 
ATOM      7  C   UNL     1       2.434   0.321   0.068  1.00  0.00    +0.000 A 
ATOM      8  C   UNL     1       1.103  -0.101  -0.103  1.00  0.00    +0.000 A 
ATOM      9  C   UNL     1      -0.084   0.794  -0.150  1.00  0.00    +0.000 A 
ATOM     10  C   UNL     1      -0.092   2.090  -0.659  1.00  0.00    +0.000 A 
ATOM     11  O   UNL     1       0.927   2.718  -1.316  1.00  0.00    +0.000 OA
ATOM     12  C   UNL     1       0.370   4.019  -1.549  1.00  0.00    +0.000 C 
ATOM     13  O   UNL     1      -1.010   4.126  -1.157  1.00  0.00    +0.000 OA
ATOM     14  C   UNL     1      -1.212   2.896  -0.608  1.00  0.00    +0.000 A 
ATOM     15  C   UNL     1      -2.406   2.470  -0.072  1.00  0.00    +0.000 A 
ATOM     16  C   UNL     1      -2.481   1.153   0.391  1.00  0.00    +0.000 A 
ATOM     17  C   UNL     1      -3.791   0.630   0.922  1.00  0.00    +0.000 C 
ATOM     18  C   UNL     1      -3.650  -0.743   1.591  1.00  0.00    +0.000 C 
ATOM     19  N   UNL     1      -2.826  -1.692   0.827  1.00  0.00    +0.000 NA
ATOM     20  C   UNL     1      -3.442  -2.036  -0.454  1.00  0.00    +0.000 C 
ATOM     21  C   UNL     1      -1.344   0.305   0.303  1.00  0.00    +0.000 A 
ENDROOT
BRANCH   6  22
ATOM     22  O   UNL     1       4.754   0.006   0.206  1.00  0.00    +0.000 OA
ATOM     23  C   UNL     1       5.881  -0.863   0.173  1.00  0.00    +0.000 C 
ENDBRANCH   6  22
BRANCH   7  24
ATOM     24  O   UNL     1       2.724   1.637   0.345  1.00  0.00    +0.000 OA
ATOM     25  H   UNL     1       3.697   1.680   0.394  1.00  0.00    +0.000 HD
ENDBRANCH   7  24
TORSDOF 2
