REMARK  Name = SANCDB_00812_minRM1.pdb
AUTHORGENERATED BY OPEN BABEL 2.3.2
REMARK  12 active torsions:
REMARK  status: ('A' for Active; 'I' for Inactive)
REMARK    1  A    between atoms: C_1  and  O_2
REMARK    2  A    between atoms: O_2  and  C_3
REMARK    3  A    between atoms: C_3  and  C_5
REMARK    4  A    between atoms: C_5  and  C_6
REMARK    5  A    between atoms: C_7  and  C_8
REMARK    6  A    between atoms: C_18  and  C_26
REMARK    7  A    between atoms: C_19  and  C_25
REMARK    8  A    between atoms: C_20  and  O_21
REMARK    9  A    between atoms: O_21  and  C_22
REMARK   10  A    between atoms: C_22  and  C_24
REMARK   11  A    between atoms: C_34  and  C_35
REMARK   12  A    between atoms: C_34  and  C_36
REMARK                            x       y       z     vdW  Elec       q    Type
REMARK                         _______ _______ _______ _____ _____    ______ ____
ROOT
ATOM      1  C   UNL     1       2.695  -0.475  -0.085  1.00  0.00    +0.000 C 
ATOM      2  C   UNL     1       1.245   0.111  -0.350  1.00  0.00    +0.000 C 
ATOM      3  C   UNL     1       1.078   0.544  -1.832  1.00  0.00    +0.000 C 
ATOM      4  C   UNL     1       0.881   1.341   0.513  1.00  0.00    +0.000 C 
ATOM      5  O   UNL     1      -0.555   1.261   0.661  1.00  0.00    +0.000 OA
ATOM      6  C   UNL     1      -0.871  -0.112   0.922  1.00  0.00    +0.000 C 
ATOM      7  C   UNL     1       0.116  -0.932   0.066  1.00  0.00    +0.000 C 
ATOM      8  C   UNL     1      -0.523  -1.704  -1.072  1.00  0.00    +0.000 C 
ATOM      9  C   UNL     1       0.001  -2.833  -1.575  1.00  0.00    +0.000 C 
ATOM     10  C   UNL     1      -1.773  -1.174  -1.545  1.00  0.00    +0.000 C 
ATOM     11  C   UNL     1      -2.084  -0.821  -2.799  1.00  0.00    +0.000 C 
ATOM     12  C   UNL     1      -3.444  -0.202  -2.869  1.00  0.00    +0.000 C 
ATOM     13  C   UNL     1      -3.757   0.124  -1.385  1.00  0.00    +0.000 C 
ATOM     14  C   UNL     1      -2.896  -0.905  -0.567  1.00  0.00    +0.000 C 
ATOM     15  C   UNL     1      -2.382  -0.427   0.830  1.00  0.00    +0.000 C 
ATOM     16  C   UNL     1      -3.721  -2.221  -0.462  1.00  0.00    +0.000 C 
ATOM     17  C   UNL     1       1.540   1.433   1.886  1.00  0.00    +0.000 C 
ATOM     18  C   UNL     1       2.063   0.093   2.335  1.00  0.00    +0.000 C 
ATOM     19  O   UNL     1       1.696  -0.399   3.403  1.00  0.00    +0.000 OA
ATOM     20  C   UNL     1       3.105  -0.586   1.441  1.00  0.00    +0.000 C 
ATOM     21  C   UNL     1       3.201  -2.085   1.825  1.00  0.00    +0.000 C 
ATOM     22  C   UNL     1       4.462   0.035   1.831  1.00  0.00    +0.000 C 
ENDROOT
BRANCH  13  23
ATOM     23  C   UNL     1      -3.571   1.585  -1.062  1.00  0.00    +0.000 A 
ATOM     24  C   UNL     1      -2.606   2.464  -1.515  1.00  0.00    +0.000 A 
ATOM     25  O   UNL     1      -2.800   3.709  -1.010  1.00  0.00    +0.000 OA
ATOM     26  C   UNL     1      -3.893   3.643  -0.211  1.00  0.00    +0.000 A 
ATOM     27  C   UNL     1      -4.409   2.370  -0.213  1.00  0.00    +0.000 A 
ENDBRANCH  13  23
BRANCH   1  28
ATOM     28  C   UNL     1       3.830   0.021  -1.026  1.00  0.00    +0.000 C 
BRANCH  28  29
ATOM     29  C   UNL     1       4.186   1.489  -0.982  1.00  0.00    +0.000 C 
ATOM     30  O   UNL     1       3.592   2.340  -0.339  1.00  0.00    +0.000 OA
BRANCH  29  32
ATOM     31  C   UNL     1       5.684   3.084  -1.813  1.00  0.00    +0.000 C 
ATOM     32  O   UNL     1       5.269   1.718  -1.775  1.00  0.00    +0.000 OA
ENDBRANCH  29  32
ENDBRANCH  28  29
ENDBRANCH   1  28
BRANCH  15  33
ATOM     33  O   UNL     1      -2.593  -1.464   1.839  1.00  0.00    +0.000 OA
BRANCH  33  34
ATOM     34  C   UNL     1      -3.705  -1.347   2.615  1.00  0.00    +0.000 C 
ATOM     35  O   UNL     1      -4.587  -0.511   2.477  1.00  0.00    +0.000 OA
ATOM     36  C   UNL     1      -3.715  -2.425   3.654  1.00  0.00    +0.000 C 
ENDBRANCH  33  34
ENDBRANCH  15  33
TORSDOF 6
