REMARK  Name = SANCDB_01041_minRM1.pdb
AUTHORGENERATED BY OPEN BABEL 2.3.2
REMARK  5 active torsions:
REMARK  status: ('A' for Active; 'I' for Inactive)
REMARK    1  A    between atoms: C_1  and  C_2
REMARK    2  A    between atoms: C_6  and  C_34
REMARK    3  A    between atoms: C_13  and  C_14
REMARK    4  A    between atoms: C_31  and  C_32
REMARK    5  A    between atoms: C_31  and  C_33
REMARK                            x       y       z     vdW  Elec       q    Type
REMARK                         _______ _______ _______ _____ _____    ______ ____
ROOT
ATOM      1  C   UNL     1       2.117   1.573  -0.494  1.00  0.00    +0.000 C 
ATOM      2  C   UNL     1       2.345   0.041  -0.378  1.00  0.00    +0.000 C 
ATOM      3  C   UNL     1       1.989  -0.526   1.030  1.00  0.00    +0.000 C 
ATOM      4  C   UNL     1       0.522  -0.927   1.282  1.00  0.00    +0.000 C 
ATOM      5  C   UNL     1      -0.422  -0.322   0.253  1.00  0.00    +0.000 C 
ATOM      6  C   UNL     1      -0.054  -0.820  -1.212  1.00  0.00    +0.000 C 
ATOM      7  C   UNL     1       1.498  -0.684  -1.427  1.00  0.00    +0.000 C 
ATOM      8  C   UNL     1       2.133  -0.855  -2.798  1.00  0.00    +0.000 C 
ATOM      9  O   UNL     1       2.120  -1.925  -1.846  1.00  0.00    +0.000 OA
ATOM     10  C   UNL     1       3.468  -0.281  -3.090  1.00  0.00    +0.000 C 
ATOM     11  O   UNL     1       3.849  -0.154  -4.246  1.00  0.00    +0.000 OA
ATOM     12  O   UNL     1       4.218   0.140  -2.033  1.00  0.00    +0.000 OA
ATOM     13  C   UNL     1       3.869  -0.253  -0.683  1.00  0.00    +0.000 C 
ATOM     14  C   UNL     1      -0.872   0.062  -2.189  1.00  0.00    +0.000 C 
ATOM     15  O   UNL     1      -0.358   0.636  -3.148  1.00  0.00    +0.000 OA
ATOM     16  C   UNL     1      -2.378   0.195  -1.924  1.00  0.00    +0.000 C 
ATOM     17  C   UNL     1      -2.536   0.694  -0.503  1.00  0.00    +0.000 C 
ATOM     18  C   UNL     1      -1.958  -0.265   0.562  1.00  0.00    +0.000 C 
ATOM     19  C   UNL     1      -2.663  -1.613   0.759  1.00  0.00    +0.000 C 
ATOM     20  O   UNL     1      -2.087  -2.313   1.863  1.00  0.00    +0.000 OA
ATOM     21  C   UNL     1      -2.083  -1.706   3.071  1.00  0.00    +0.000 C 
ATOM     22  O   UNL     1      -1.786  -2.330   4.085  1.00  0.00    +0.000 OA
ATOM     23  C   UNL     1      -2.418  -0.236   3.126  1.00  0.00    +0.000 C 
ATOM     24  C   UNL     1      -2.393   0.520   1.803  1.00  0.00    +0.000 C 
ATOM     25  O   UNL     1      -3.764   0.923   1.482  1.00  0.00    +0.000 OA
ATOM     26  C   UNL     1      -3.884   1.148   0.052  1.00  0.00    +0.000 C 
ATOM     27  C   UNL     1      -5.100   0.404  -0.498  1.00  0.00    +0.000 C 
ATOM     28  C   UNL     1      -4.101   2.654  -0.151  1.00  0.00    +0.000 C 
ATOM     29  C   UNL     1      -0.470  -2.283  -1.512  1.00  0.00    +0.000 C 
ENDROOT
BRANCH  13  30
ATOM     30  C   UNL     1       4.826   0.397   0.286  1.00  0.00    +0.000 A 
ATOM     31  C   UNL     1       5.413   1.644   0.183  1.00  0.00    +0.000 A 
ATOM     32  O   UNL     1       6.220   1.892   1.244  1.00  0.00    +0.000 OA
ATOM     33  C   UNL     1       6.183   0.791   2.034  1.00  0.00    +0.000 A 
ATOM     34  C   UNL     1       5.351  -0.159   1.491  1.00  0.00    +0.000 A 
ENDBRANCH  13  30
TORSDOF 1
