REMARK  Name = /srv/my_project/app/compsite/backup/Dave/CORINA_stuff/newPDBs/SANC00259.pdb
AUTHORGENERATED BY OPEN BABEL 2.3.2
REMARK  6 active torsions:
REMARK  status: ('A' for Active; 'I' for Inactive)
REMARK    1  A    between atoms: C_2  and  C_3
REMARK    2  A    between atoms: C_3  and  C_4
REMARK    3  A    between atoms: C_3  and  C_6
REMARK    4  A    between atoms: C_6  and  C_9
REMARK    5  A    between atoms: C_10  and  C_11
REMARK    6  A    between atoms: C_11  and  C_12
REMARK                            x       y       z     vdW  Elec       q    Type
REMARK                         _______ _______ _______ _____ _____    ______ ____
ROOT
ATOM      1  C   UNL     1      -1.040  -0.096  -1.316  1.00  0.00    +0.000 C 
ATOM      2 CL   UNL     1      -1.092   1.226  -2.543  1.00  0.00    +0.000 Cl
ENDROOT
BRANCH   1   3
ATOM      3  C   UNL     1      -2.148   0.039  -0.213  1.00  0.00    +0.000 C 
ATOM      4  C   UNL     1      -2.060   1.362   0.569  1.00  0.00    +0.000 C 
ATOM      5 CL   UNL     1      -3.787   0.022  -1.003  1.00  0.00    +0.000 Cl
BRANCH   3   7
ATOM      6  C   UNL     1      -2.775  -2.243   0.860  1.00  0.00    +0.000 C 
ATOM      7  C   UNL     1      -2.051  -1.115   0.794  1.00  0.00    +0.000 C 
ENDBRANCH   3   7
ENDBRANCH   1   3
BRANCH   1   8
ATOM      8  C   UNL     1       0.377  -0.261  -0.784  1.00  0.00    +0.000 C 
ATOM      9  C   UNL     1       1.264   0.715  -0.515  1.00  0.00    +0.000 C 
BRANCH   9  10
ATOM     10  C   UNL     1       2.619   0.532  -0.002  1.00  0.00    +0.000 C 
ATOM     11  C   UNL     1       3.124  -0.878   0.196  1.00  0.00    +0.000 C 
ATOM     12  C   UNL     1       3.439   1.557   0.296  1.00  0.00    +0.000 C 
ATOM     13 BR   UNL     1       3.108   3.380   0.168  1.00  0.00    +0.000 Br
ENDBRANCH   9  10
ENDBRANCH   1   8
TORSDOF 4
