REMARK  Name = SANCDB_00958_minRM1.pdb
AUTHORGENERATED BY OPEN BABEL 2.3.2
REMARK  9 active torsions:
REMARK  status: ('A' for Active; 'I' for Inactive)
REMARK    1  A    between atoms: C_1  and  C_2
REMARK    2  A    between atoms: C_2  and  C_3
REMARK    3  A    between atoms: C_2  and  C_4
REMARK    4  A    between atoms: C_5  and  C_6
REMARK    5  A    between atoms: C_7  and  O_25
REMARK    6  A    between atoms: C_9  and  O_24
REMARK    7  A    between atoms: C_13  and  O_17
REMARK    8  A    between atoms: C_21  and  O_22
REMARK    9  A    between atoms: O_22  and  C_23
REMARK                            x       y       z     vdW  Elec       q    Type
REMARK                         _______ _______ _______ _____ _____    ______ ____
ROOT
ATOM      1  C   UNL     1       1.506  -0.068  -0.506  1.00  0.00    +0.000 A 
ATOM      2  C   UNL     1       0.368   0.743  -0.699  1.00  0.00    +0.000 A 
ATOM      3  C   UNL     1      -0.944   0.330  -0.331  1.00  0.00    +0.000 A 
ATOM      4  C   UNL     1      -2.125   1.107  -0.492  1.00  0.00    +0.000 A 
ATOM      5  C   UNL     1      -3.391   0.628  -0.100  1.00  0.00    +0.000 A 
ATOM      6  C   UNL     1      -3.506  -0.642   0.470  1.00  0.00    +0.000 A 
ATOM      7  C   UNL     1      -4.838  -1.211   0.889  1.00  0.00    +0.000 C 
ATOM      8  C   UNL     1      -5.865  -0.124   1.199  1.00  0.00    +0.000 C 
ATOM      9  C   UNL     1      -5.958   0.897   0.080  1.00  0.00    +0.000 C 
ATOM     10  C   UNL     1      -4.610   1.455  -0.306  1.00  0.00    +0.000 C 
ATOM     11  O   UNL     1      -4.505   2.557  -0.848  1.00  0.00    +0.000 OA
ATOM     12  C   UNL     1      -2.350  -1.423   0.620  1.00  0.00    +0.000 A 
ATOM     13  C   UNL     1      -1.081  -0.956   0.235  1.00  0.00    +0.000 A 
ATOM     14  C   UNL     1       0.049  -1.776   0.410  1.00  0.00    +0.000 A 
ATOM     15  C   UNL     1       1.332  -1.353   0.042  1.00  0.00    +0.000 A 
ENDROOT
BRANCH   1  17
ATOM     16  C   UNL     1       3.913   0.466  -0.140  1.00  0.00    +0.000 C 
ATOM     17  C   UNL     1       2.825   0.447  -0.928  1.00  0.00    +0.000 C 
BRANCH  16  19
ATOM     18  C   UNL     1       5.646   2.191   0.325  1.00  0.00    +0.000 C 
ATOM     19  C   UNL     1       5.247   1.019  -0.571  1.00  0.00    +0.000 C 
ATOM     20  C   UNL     1       6.310  -0.078  -0.529  1.00  0.00    +0.000 C 
ENDBRANCH  16  19
ENDBRANCH   1  17
BRANCH   8  21
ATOM     21  O   UNL     1      -5.526   0.515   2.430  1.00  0.00    +0.000 OA
ATOM     22  H   UNL     1      -6.238   1.140   2.655  1.00  0.00    +0.000 HD
ENDBRANCH   8  21
BRANCH  15  23
ATOM     23  O   UNL     1       2.456  -2.134   0.161  1.00  0.00    +0.000 OA
ATOM     24  C   UNL     1       2.321  -3.424   0.738  1.00  0.00    +0.000 C 
ENDBRANCH  15  23
BRANCH   4  25
ATOM     25  O   UNL     1      -1.982   2.360  -1.058  1.00  0.00    +0.000 OA
ATOM     26  H   UNL     1      -2.877   2.772  -1.117  1.00  0.00    +0.000 HD
ENDBRANCH   4  25
BRANCH   2  27
ATOM     27  O   UNL     1       0.565   1.986  -1.269  1.00  0.00    +0.000 OA
ATOM     28  H   UNL     1      -0.310   2.423  -1.308  1.00  0.00    +0.000 HD
ENDBRANCH   2  27
TORSDOF 6
