REMARK  Name = SANCDB_00980_minRM1.pdb
AUTHORGENERATED BY OPEN BABEL 2.3.2
REMARK  7 active torsions:
REMARK  status: ('A' for Active; 'I' for Inactive)
REMARK    1  A    between atoms: C_1  and  O_2
REMARK    2  A    between atoms: O_2  and  C_3
REMARK    3  A    between atoms: C_4  and  C_16
REMARK    4  A    between atoms: C_8  and  O_15
REMARK    5  A    between atoms: C_10  and  O_14
REMARK    6  A    between atoms: C_18  and  O_23
REMARK    7  A    between atoms: C_19  and  O_22
REMARK                            x       y       z     vdW  Elec       q    Type
REMARK                         _______ _______ _______ _____ _____    ______ ____
ROOT
ATOM      1  C   UNL     1       0.282   1.267  -0.067  1.00  0.00    +0.000 A 
ATOM      2  C   UNL     1      -0.278   0.040  -0.054  1.00  0.00    +0.000 A 
ATOM      3  O   UNL     1       0.416  -1.148   0.114  1.00  0.00    +0.000 OA
ATOM      4  C   UNL     1       1.777  -1.105   0.240  1.00  0.00    +0.000 A 
ATOM      5  C   UNL     1       2.437  -2.324   0.398  1.00  0.00    +0.000 A 
ATOM      6  C   UNL     1       3.822  -2.344   0.530  1.00  0.00    +0.000 A 
ATOM      7  C   UNL     1       4.560  -1.165   0.506  1.00  0.00    +0.000 A 
ATOM      8  C   UNL     1       3.894   0.049   0.348  1.00  0.00    +0.000 A 
ATOM      9  C   UNL     1       2.500   0.082   0.215  1.00  0.00    +0.000 A 
ATOM     10  C   UNL     1       1.768   1.345   0.052  1.00  0.00    +0.000 A 
ATOM     11  O   UNL     1       2.399   2.400   0.019  1.00  0.00    +0.000 OA
ENDROOT
BRANCH   2  12
ATOM     12  C   UNL     1      -1.735  -0.173  -0.183  1.00  0.00    +0.000 A 
ATOM     13  C   UNL     1      -2.457   0.345  -1.268  1.00  0.00    +0.000 A 
ATOM     14  C   UNL     1      -3.821   0.102  -1.365  1.00  0.00    +0.000 A 
ATOM     15  C   UNL     1      -4.485  -0.654  -0.403  1.00  0.00    +0.000 A 
ATOM     16  C   UNL     1      -3.789  -1.183   0.675  1.00  0.00    +0.000 A 
ATOM     17  C   UNL     1      -2.414  -0.944   0.780  1.00  0.00    +0.000 A 
BRANCH  15  18
ATOM     18  O   UNL     1      -5.828  -0.852  -0.565  1.00  0.00    +0.000 OA
ATOM     19  H   UNL     1      -6.145  -1.396   0.176  1.00  0.00    +0.000 HD
ENDBRANCH  15  18
BRANCH  14  20
ATOM     20  O   UNL     1      -4.514   0.613  -2.426  1.00  0.00    +0.000 OA
ATOM     21  H   UNL     1      -5.436   0.319  -2.281  1.00  0.00    +0.000 HD
ENDBRANCH  14  20
ENDBRANCH   2  12
BRANCH   1  23
ATOM     22  C   UNL     1      -0.155   3.477   0.656  1.00  0.00    +0.000 C 
ATOM     23  O   UNL     1      -0.487   2.410  -0.226  1.00  0.00    +0.000 OA
ENDBRANCH   1  23
BRANCH   8  24
ATOM     24  O   UNL     1       4.673   1.175   0.332  1.00  0.00    +0.000 OA
ATOM     25  H   UNL     1       4.084   1.952   0.195  1.00  0.00    +0.000 HD
ENDBRANCH   8  24
BRANCH   6  26
ATOM     26  O   UNL     1       4.426  -3.556   0.683  1.00  0.00    +0.000 OA
ATOM     27  H   UNL     1       5.388  -3.422   0.747  1.00  0.00    +0.000 HD
ENDBRANCH   6  26
TORSDOF 6
