REMARK  Name = SANCDB_01112_minRM1.pdb
AUTHORGENERATED BY OPEN BABEL 2.3.2
REMARK  7 active torsions:
REMARK  status: ('A' for Active; 'I' for Inactive)
REMARK    1  A    between atoms: C_3  and  O_24
REMARK    2  A    between atoms: C_6  and  C_7
REMARK    3  A    between atoms: C_8  and  C_9
REMARK    4  A    between atoms: N_11  and  C_12
REMARK    5  A    between atoms: C_12  and  C_13
REMARK    6  A    between atoms: C_13  and  C_14
REMARK    7  A    between atoms: C_20  and  O_23
REMARK                            x       y       z     vdW  Elec       q    Type
REMARK                         _______ _______ _______ _____ _____    ______ ____
ROOT
ATOM      1  C   UNL     1       0.888   2.165  -1.077  1.00  0.00    +0.000 C 
ATOM      2  O   UNL     1       0.791   3.013  -1.956  1.00  0.00    +0.000 OA
ATOM      3  N   UNL     1      -0.094   1.877  -0.167  1.00  0.00    +0.000 N 
ATOM      4  H   UNL     1      -0.038   1.004   0.342  1.00  0.00    +0.000 HD
ENDROOT
BRANCH   1   6
ATOM      5  C   UNL     1       2.570   0.773   0.133  1.00  0.00    +0.000 C 
ATOM      6  C   UNL     1       2.100   1.312  -1.002  1.00  0.00    +0.000 C 
BRANCH   5  12
ATOM      7  C   UNL     1       4.932   0.241  -0.552  1.00  0.00    +0.000 A 
ATOM      8  C   UNL     1       6.078  -0.553  -0.443  1.00  0.00    +0.000 A 
ATOM      9  C   UNL     1       6.078  -1.637   0.426  1.00  0.00    +0.000 A 
ATOM     10  C   UNL     1       4.957  -1.936   1.189  1.00  0.00    +0.000 A 
ATOM     11  C   UNL     1       3.813  -1.141   1.081  1.00  0.00    +0.000 A 
ATOM     12  C   UNL     1       3.784  -0.053   0.198  1.00  0.00    +0.000 A 
BRANCH   9  13
ATOM     13  O   UNL     1       7.173  -2.438   0.564  1.00  0.00    +0.000 OA
ATOM     14  H   UNL     1       7.875  -2.107  -0.019  1.00  0.00    +0.000 HD
ENDBRANCH   9  13
ENDBRANCH   5  12
ENDBRANCH   1   6
BRANCH   3  15
ATOM     15  C   UNL     1      -1.408   2.489  -0.259  1.00  0.00    +0.000 C 
BRANCH  15  16
ATOM     16  C   UNL     1      -2.309   1.810  -1.296  1.00  0.00    +0.000 C 
BRANCH  16  17
ATOM     17  C   UNL     1      -2.604   0.377  -0.962  1.00  0.00    +0.000 A 
ATOM     18  C   UNL     1      -2.010  -0.732  -1.535  1.00  0.00    +0.000 A 
ATOM     19  N   UNL     1      -2.543  -1.853  -0.961  1.00  0.00    +0.000 N 
ATOM     20  C   UNL     1      -3.474  -1.503  -0.011  1.00  0.00    +0.000 A 
ATOM     21  C   UNL     1      -3.542  -0.109   0.006  1.00  0.00    +0.000 A 
ATOM     22  C   UNL     1      -4.441   0.512   0.899  1.00  0.00    +0.000 A 
ATOM     23  C   UNL     1      -5.224  -0.289   1.733  1.00  0.00    +0.000 A 
ATOM     24  C   UNL     1      -5.137  -1.675   1.701  1.00  0.00    +0.000 A 
ATOM     25  C   UNL     1      -4.257  -2.312   0.823  1.00  0.00    +0.000 A 
ATOM     26  H   UNL     1      -2.296  -2.804  -1.197  1.00  0.00    +0.000 HD
BRANCH  23  27
ATOM     27  O   UNL     1      -6.109   0.265   2.613  1.00  0.00    +0.000 OA
ATOM     28  H   UNL     1      -6.088   1.230   2.506  1.00  0.00    +0.000 HD
ENDBRANCH  23  27
ENDBRANCH  16  17
ENDBRANCH  15  16
ENDBRANCH   3  15
TORSDOF 7
