REMARK  Name = /srv/my_project/app/compsite/backup/Dave/CORINA_stuff/newPDBs/SANC00292.pdb
AUTHORGENERATED BY OPEN BABEL 2.3.2
REMARK  12 active torsions:
REMARK  status: ('A' for Active; 'I' for Inactive)
REMARK    1  A    between atoms: C_9  and  C_11
REMARK    2  A    between atoms: C_11  and  O_12
REMARK    3  A    between atoms: C_14  and  O_16
REMARK    4  A    between atoms: C_19  and  C_21
REMARK    5  A    between atoms: C_29  and  C_31
REMARK    6  A    between atoms: C_36  and  O_38
REMARK    7  A    between atoms: O_38  and  C_39
REMARK    8  A    between atoms: C_42  and  C_44
REMARK    9  A    between atoms: C_45  and  O_47
REMARK   10  A    between atoms: C_48  and  O_50
REMARK   11  A    between atoms: C_51  and  O_53
REMARK   12  A    between atoms: O_53  and  C_54
REMARK                            x       y       z     vdW  Elec       q    Type
REMARK                         _______ _______ _______ _____ _____    ______ ____
ROOT
ATOM      1  C   UNL     1       1.243   2.390  -1.442  1.00  0.00    +0.000 C 
ATOM      2  C   UNL     1       0.413   2.653  -0.167  1.00  0.00    +0.000 C 
ATOM      3  C   UNL     1      -1.062   2.738  -0.453  1.00  0.00    +0.000 C 
ATOM      4  C   UNL     1      -1.771   3.878  -0.428  1.00  0.00    +0.000 C 
ATOM      5  C   UNL     1      -3.224   3.959  -0.693  1.00  0.00    +0.000 C 
ATOM      6  O   UNL     1      -3.806   5.019  -0.855  1.00  0.00    +0.000 OA
ATOM      7  O   UNL     1      -3.781   2.728  -0.696  1.00  0.00    +0.000 OA
ATOM      8  C   UNL     1      -5.215   2.657  -0.881  1.00  0.00    +0.000 C 
ATOM      9  C   UNL     1      -5.683   1.405  -0.124  1.00  0.00    +0.000 C 
ATOM     10  C   UNL     1      -5.666   1.641   1.394  1.00  0.00    +0.000 C 
ATOM     11  C   UNL     1      -5.676   0.349   2.227  1.00  0.00    +0.000 C 
ATOM     12  C   UNL     1      -6.776  -0.650   1.910  1.00  0.00    +0.000 C 
ATOM     13  C   UNL     1      -6.174  -1.930   2.460  1.00  0.00    +0.000 C 
ATOM     14  C   UNL     1      -6.914  -3.177   2.017  1.00  0.00    +0.000 C 
ATOM     15  C   UNL     1      -4.693  -1.787   2.077  1.00  0.00    +0.000 C 
ATOM     16  C   UNL     1      -4.246  -2.317   0.700  1.00  0.00    +0.000 C 
ATOM     17  C   UNL     1      -3.920  -3.787   0.695  1.00  0.00    +0.000 C 
ATOM     18  C   UNL     1      -2.723  -4.374   0.535  1.00  0.00    +0.000 C 
ATOM     19  C   UNL     1      -1.440  -3.748   0.314  1.00  0.00    +0.000 C 
ATOM     20  C   UNL     1      -1.163  -2.938  -0.721  1.00  0.00    +0.000 C 
ATOM     21  C   UNL     1       0.186  -2.348  -1.092  1.00  0.00    +0.000 C 
ATOM     22  C   UNL     1       1.373  -3.024  -0.401  1.00  0.00    +0.000 C 
ATOM     23  C   UNL     1       0.156  -0.814  -0.892  1.00  0.00    +0.000 C 
ATOM     24  C   UNL     1       1.365  -0.065  -1.486  1.00  0.00    +0.000 C 
ATOM     25  C   UNL     1       2.531   0.128  -0.514  1.00  0.00    +0.000 C 
ATOM     26  C   UNL     1       3.479   1.186  -1.060  1.00  0.00    +0.000 C 
ATOM     27  C   UNL     1       2.750   2.522  -1.202  1.00  0.00    +0.000 C 
ATOM     28  O   UNL     1       0.915   1.160  -2.085  1.00  0.00    +0.000 OA
ATOM     29  O   UNL     1      -4.432  -0.359   2.086  1.00  0.00    +0.000 OA
ENDROOT
BRANCH  10  30
ATOM     30  O   UNL     1      -6.801   2.446   1.726  1.00  0.00    +0.000 OA
ATOM     31  H   UNL     1      -6.682   2.749   2.643  1.00  0.00    +0.000 HD
ENDBRANCH  10  30
BRANCH   8  32
ATOM     32  C   UNL     1      -5.496   2.555  -2.386  1.00  0.00    +0.000 C 
BRANCH  32  33
ATOM     33  O   UNL     1      -4.893   1.388  -2.945  1.00  0.00    +0.000 OA
ATOM     34  H   UNL     1      -3.958   1.401  -2.668  1.00  0.00    +0.000 HD
ENDBRANCH  32  33
ENDBRANCH   8  32
BRANCH  26  35
ATOM     35  O   UNL     1       4.594   1.415  -0.190  1.00  0.00    +0.000 OA
BRANCH  35  36
ATOM     36  C   UNL     1       5.686   0.506  -0.376  1.00  0.00    +0.000 C 
ATOM     37  O   UNL     1       5.375  -0.765   0.182  1.00  0.00    +0.000 OA
ATOM     38  C   UNL     1       6.367  -1.771  -0.077  1.00  0.00    +0.000 C 
ATOM     39  C   UNL     1       6.025  -2.512  -1.367  1.00  0.00    +0.000 C 
ATOM     40  C   UNL     1       7.801  -1.212  -0.095  1.00  0.00    +0.000 C 
ATOM     41  C   UNL     1       7.870   0.005   0.828  1.00  0.00    +0.000 C 
ATOM     42  C   UNL     1       6.932   1.116   0.322  1.00  0.00    +0.000 C 
BRANCH  40  43
ATOM     43  O   UNL     1       8.732  -2.209   0.335  1.00  0.00    +0.000 OA
ATOM     44  H   UNL     1       9.525  -1.711   0.625  1.00  0.00    +0.000 HD
ENDBRANCH  40  43
BRANCH  41  45
ATOM     45  O   UNL     1       9.233   0.462   0.901  1.00  0.00    +0.000 OA
ATOM     46  H   UNL     1       9.286   1.211   0.269  1.00  0.00    +0.000 HD
ENDBRANCH  41  45
BRANCH  42  47
ATOM     47  O   UNL     1       7.707   1.942  -0.588  1.00  0.00    +0.000 OA
ATOM     48  C   UNL     1       7.048   3.158  -0.930  1.00  0.00    +0.000 C 
ENDBRANCH  42  47
ENDBRANCH  35  36
ENDBRANCH  26  35
TORSDOF 8
