REMARK  Name = /srv/my_project/app/compsite/backup/Dave/CORINA_stuff/newPDBs/SANC00339.pdb
AUTHORGENERATED BY OPEN BABEL 2.3.2
REMARK  4 active torsions:
REMARK  status: ('A' for Active; 'I' for Inactive)
REMARK    1  A    between atoms: C_4  and  O_5
REMARK    2  A    between atoms: O_5  and  C_6
REMARK    3  A    between atoms: C_22  and  O_23
REMARK    4  A    between atoms: O_23  and  C_24
REMARK                            x       y       z     vdW  Elec       q    Type
REMARK                         _______ _______ _______ _____ _____    ______ ____
ROOT
ATOM      1  C   UNL     1       1.029   0.954  -0.729  1.00  0.00    +0.000 C 
ATOM      2  C   UNL     1       2.459   1.380  -1.132  1.00  0.00    +0.000 C 
ATOM      3  C   UNL     1       3.542   0.906  -0.199  1.00  0.00    +0.000 C 
ATOM      4  C   UNL     1       3.316  -0.050   0.718  1.00  0.00    +0.000 C 
ATOM      5  C   UNL     1       1.991  -0.729   0.921  1.00  0.00    +0.000 C 
ATOM      6  C   UNL     1       0.922  -0.474  -0.158  1.00  0.00    +0.000 C 
ATOM      7  C   UNL     1       1.102  -1.313  -1.435  1.00  0.00    +0.000 C 
ATOM      8  C   UNL     1       0.460  -0.453  -2.533  1.00  0.00    +0.000 C 
ATOM      9  N   UNL     1       0.149   0.868  -1.927  1.00  0.00    +0.000 NA
ATOM     10  C   UNL     1      -1.261   0.904  -1.466  1.00  0.00    +0.000 C 
ATOM     11  C   UNL     1      -1.584  -0.046  -0.320  1.00  0.00    +0.000 A 
ATOM     12  C   UNL     1      -0.516  -0.725   0.343  1.00  0.00    +0.000 A 
ATOM     13  C   UNL     1      -0.810  -1.629   1.371  1.00  0.00    +0.000 A 
ATOM     14  C   UNL     1      -2.131  -1.795   1.733  1.00  0.00    +0.000 A 
ATOM     15  O   UNL     1      -2.555  -2.633   2.720  1.00  0.00    +0.000 OA
ATOM     16  C   UNL     1      -3.974  -2.412   2.671  1.00  0.00    +0.000 C 
ATOM     17  O   UNL     1      -4.367  -1.462   1.664  1.00  0.00    +0.000 OA
ATOM     18  C   UNL     1      -3.164  -1.119   1.118  1.00  0.00    +0.000 A 
ATOM     19  C   UNL     1      -2.927  -0.231   0.081  1.00  0.00    +0.000 A 
ENDROOT
BRANCH   3  20
ATOM     20  O   UNL     1       4.739   1.554  -0.412  1.00  0.00    +0.000 OA
ATOM     21  C   UNL     1       5.854   1.201   0.398  1.00  0.00    +0.000 C 
ENDBRANCH   3  20
BRANCH  19  22
ATOM     22  O   UNL     1      -3.853   0.497  -0.612  1.00  0.00    +0.000 OA
ATOM     23  C   UNL     1      -5.218   0.364  -0.240  1.00  0.00    +0.000 C 
ENDBRANCH  19  22
TORSDOF 2
