REMARK  Name = SANCDB_01079_minRM1.pdb
AUTHORGENERATED BY OPEN BABEL 2.3.2
REMARK  8 active torsions:
REMARK  status: ('A' for Active; 'I' for Inactive)
REMARK    1  A    between atoms: C_1  and  C_2
REMARK    2  A    between atoms: C_2  and  C_3
REMARK    3  A    between atoms: C_2  and  C_4
REMARK    4  A    between atoms: C_2  and  O_19
REMARK    5  A    between atoms: C_4  and  C_5
REMARK    6  A    between atoms: C_4  and  O_18
REMARK    7  A    between atoms: C_5  and  C_6
REMARK    8  A    between atoms: C_7  and  O_17
REMARK                            x       y       z     vdW  Elec       q    Type
REMARK                         _______ _______ _______ _____ _____    ______ ____
ROOT
ATOM      1  C   UNL     1       0.590  -0.004  -0.670  1.00  0.00    +0.000 A 
ATOM      2  C   UNL     1       1.243   1.017  -1.375  1.00  0.00    +0.000 A 
ATOM      3  C   UNL     1       2.614   1.222  -1.241  1.00  0.00    +0.000 A 
ATOM      4  C   UNL     1       3.334   0.392  -0.387  1.00  0.00    +0.000 A 
ATOM      5  C   UNL     1       2.720  -0.630   0.333  1.00  0.00    +0.000 A 
ATOM      6  C   UNL     1       1.345  -0.827   0.188  1.00  0.00    +0.000 A 
ATOM      7  C   UNL     1       3.531  -1.458   1.211  1.00  0.00    +0.000 A 
ATOM      8  C   UNL     1       4.843  -1.224   1.308  1.00  0.00    +0.000 A 
ATOM      9  C   UNL     1       5.514  -0.151   0.554  1.00  0.00    +0.000 A 
ATOM     10  O   UNL     1       6.721   0.030   0.664  1.00  0.00    +0.000 OA
ATOM     11  O   UNL     1       4.719   0.627  -0.276  1.00  0.00    +0.000 OA
ENDROOT
BRANCH   2  12
ATOM     12  O   UNL     1       0.513   1.816  -2.211  1.00  0.00    +0.000 OA
ATOM     13  H   UNL     1       1.074   2.553  -2.505  1.00  0.00    +0.000 HD
ENDBRANCH   2  12
BRANCH   1  14
ATOM     14  C   UNL     1      -0.904  -0.222  -0.792  1.00  0.00    +0.000 C 
BRANCH  14  15
ATOM     15  C   UNL     1      -1.698   0.342   0.404  1.00  0.00    +0.000 C 
BRANCH  15  17
ATOM     16  C   UNL     1      -3.574  -1.413   0.219  1.00  0.00    +0.000 C 
ATOM     17  C   UNL     1      -3.232   0.076   0.317  1.00  0.00    +0.000 C 
ATOM     18  C   UNL     1      -3.948   0.679   1.534  1.00  0.00    +0.000 C 
BRANCH  17  19
ATOM     19  O   UNL     1      -3.760   0.754  -0.835  1.00  0.00    +0.000 OA
ATOM     20  H   UNL     1      -3.550   0.232  -1.628  1.00  0.00    +0.000 HD
ENDBRANCH  17  19
ENDBRANCH  15  17
BRANCH  15  21
ATOM     21  O   UNL     1      -1.491   1.762   0.473  1.00  0.00    +0.000 OA
ATOM     22  H   UNL     1      -2.018   2.143  -0.256  1.00  0.00    +0.000 HD
ENDBRANCH  15  21
ENDBRANCH  14  15
ENDBRANCH   1  14
TORSDOF 6
