REMARK  Name = /srv/my_project/app/compsite/backup/Dave/CORINA_stuff/newPDBs/SANC00547.pdb
AUTHORGENERATED BY OPEN BABEL 2.3.2
REMARK  21 active torsions:
REMARK  status: ('A' for Active; 'I' for Inactive)
REMARK    1  A    between atoms: C_2  and  C_3
REMARK    2  A    between atoms: C_3  and  C_5
REMARK    3  A    between atoms: C_3  and  C_6
REMARK    4  A    between atoms: C_6  and  C_7
REMARK    5  A    between atoms: C_7  and  C_8
REMARK    6  A    between atoms: C_8  and  O_10
REMARK    7  A    between atoms: C_8  and  C_11
REMARK    8  A    between atoms: C_11  and  C_12
REMARK    9  A    between atoms: C_11  and  C_13
REMARK   10  A    between atoms: C_11  and  O_14
REMARK   11  A    between atoms: O_14  and  C_15
REMARK   12  A    between atoms: C_18  and  C_20
REMARK   13  A    between atoms: C_20  and  O_21
REMARK   14  A    between atoms: C_22  and  O_24
REMARK   15  A    between atoms: C_25  and  O_27
REMARK   16  A    between atoms: C_28  and  O_30
REMARK   17  A    between atoms: C_33  and  C_34
REMARK   18  A    between atoms: C_41  and  C_42
REMARK   19  A    between atoms: C_41  and  C_43
REMARK   20  A    between atoms: C_44  and  O_46
REMARK   21  A    between atoms: C_56  and  C_57
REMARK                            x       y       z     vdW  Elec       q    Type
REMARK                         _______ _______ _______ _____ _____    ______ ____
ROOT
ATOM      1  C   UNL     1      -0.034  -0.957  -0.204  1.00  0.00    +0.000 C 
ATOM      2  C   UNL     1      -0.166  -2.100  -1.250  1.00  0.00    +0.000 C 
ATOM      3  C   UNL     1      -1.666  -2.316  -1.498  1.00  0.00    +0.000 C 
ATOM      4  C   UNL     1      -2.336  -1.027  -0.999  1.00  0.00    +0.000 C 
ATOM      5  C   UNL     1      -2.156   0.060  -2.113  1.00  0.00    +0.000 C 
ATOM      6  C   UNL     1      -3.849  -1.173  -0.655  1.00  0.00    +0.000 C 
ATOM      7  C   UNL     1      -4.691  -1.498  -1.914  1.00  0.00    +0.000 C 
ATOM      8  C   UNL     1      -6.193  -1.367  -1.699  1.00  0.00    +0.000 C 
ATOM      9  C   UNL     1      -6.532   0.100  -1.415  1.00  0.00    +0.000 C 
ATOM     10  C   UNL     1      -8.056   0.436  -1.170  1.00  0.00    +0.000 C 
ATOM     11  C   UNL     1      -8.673   0.870  -2.521  1.00  0.00    +0.000 C 
ATOM     12  C   UNL     1      -8.868  -0.783  -0.678  1.00  0.00    +0.000 C 
ATOM     13  C   UNL     1      -8.216   1.574  -0.096  1.00  0.00    +0.000 C 
ATOM     14  C   UNL     1      -7.204   2.713  -0.230  1.00  0.00    +0.000 C 
ATOM     15  C   UNL     1      -5.791   2.193  -0.282  1.00  0.00    +0.000 C 
ATOM     16  O   UNL     1      -4.818   2.912  -0.473  1.00  0.00    +0.000 OA
ATOM     17  C   UNL     1      -5.677   0.697  -0.302  1.00  0.00    +0.000 C 
ATOM     18  C   UNL     1      -5.635  -0.110   0.971  1.00  0.00    +0.000 C 
ATOM     19  C   UNL     1      -4.342   0.059   0.158  1.00  0.00    +0.000 C 
ATOM     20  C   UNL     1      -3.317   0.878   0.982  1.00  0.00    +0.000 C 
ATOM     21  O   UNL     1      -3.707   1.641   1.867  1.00  0.00    +0.000 OA
ATOM     22  C   UNL     1      -1.832   0.700   0.736  1.00  0.00    +0.000 C 
ATOM     23  C   UNL     1      -1.499  -0.730   0.301  1.00  0.00    +0.000 C 
ATOM     24  C   UNL     1      -1.815  -1.682   1.485  1.00  0.00    +0.000 C 
ENDROOT
BRANCH   1  25
ATOM     25  C   UNL     1       1.190  -1.137   0.749  1.00  0.00    +0.000 C 
ATOM     26  C   UNL     1       1.233  -2.423   1.584  1.00  0.00    +0.000 C 
BRANCH  25  27
ATOM     27  C   UNL     1       1.403   0.107   1.638  1.00  0.00    +0.000 C 
BRANCH  27  28
ATOM     28  C   UNL     1       2.728   0.187   2.422  1.00  0.00    +0.000 C 
BRANCH  28  29
ATOM     29  C   UNL     1       3.978   0.341   1.539  1.00  0.00    +0.000 C 
BRANCH  29  30
ATOM     30  C   UNL     1       5.243   0.884   2.289  1.00  0.00    +0.000 C 
ATOM     31  C   UNL     1       5.576   0.012   3.513  1.00  0.00    +0.000 C 
ATOM     32  C   UNL     1       5.057   2.335   2.762  1.00  0.00    +0.000 C 
BRANCH  30  33
ATOM     33  O   UNL     1       6.445   0.813   1.484  1.00  0.00    +0.000 OA
BRANCH  33  34
ATOM     34  C   UNL     1       6.394   1.384   0.175  1.00  0.00    +0.000 C 
ATOM     35  O   UNL     1       6.167   0.329  -0.769  1.00  0.00    +0.000 OA
ATOM     36  C   UNL     1       7.326  -0.400  -1.214  1.00  0.00    +0.000 C 
ATOM     37  C   UNL     1       8.441   0.519  -1.762  1.00  0.00    +0.000 C 
ATOM     38  C   UNL     1       8.120   1.994  -1.528  1.00  0.00    +0.000 C 
ATOM     39  C   UNL     1       7.676   2.202  -0.090  1.00  0.00    +0.000 C 
BRANCH  37  40
ATOM     40  O   UNL     1       8.596   0.351  -3.185  1.00  0.00    +0.000 OA
ATOM     41  H   UNL     1       8.921  -0.554  -3.340  1.00  0.00    +0.000 HD
ENDBRANCH  37  40
BRANCH  38  42
ATOM     42  O   UNL     1       9.283   2.799  -1.790  1.00  0.00    +0.000 OA
ATOM     43  H   UNL     1       9.570   2.543  -2.689  1.00  0.00    +0.000 HD
ENDBRANCH  38  42
BRANCH  39  44
ATOM     44  O   UNL     1       7.437   3.603   0.134  1.00  0.00    +0.000 OA
ATOM     45  H   UNL     1       8.214   4.051  -0.260  1.00  0.00    +0.000 HD
ENDBRANCH  39  44
BRANCH  36  46
ATOM     46  C   UNL     1       7.839  -1.381  -0.143  1.00  0.00    +0.000 C 
BRANCH  46  47
ATOM     47  O   UNL     1       8.535  -0.724   0.907  1.00  0.00    +0.000 OA
ATOM     48  H   UNL     1       7.850  -0.315   1.480  1.00  0.00    +0.000 HD
ENDBRANCH  46  47
ENDBRANCH  36  46
ENDBRANCH  33  34
ENDBRANCH  30  33
ENDBRANCH  29  30
BRANCH  29  49
ATOM     49  O   UNL     1       4.288  -0.937   0.971  1.00  0.00    +0.000 OA
ATOM     50  H   UNL     1       4.970  -0.761   0.292  1.00  0.00    +0.000 HD
ENDBRANCH  29  49
ENDBRANCH  28  29
ENDBRANCH  27  28
ENDBRANCH  25  27
ENDBRANCH   1  25
BRANCH  13  51
ATOM     51  O   UNL     1      -9.540   2.111  -0.140  1.00  0.00    +0.000 OA
ATOM     52  H   UNL     1      -9.627   2.757   0.583  1.00  0.00    +0.000 HD
ENDBRANCH  13  51
TORSDOF 14
