REMARK  Name = SANCDB_01007_minRM1.pdb
AUTHORGENERATED BY OPEN BABEL 2.3.2
REMARK  12 active torsions:
REMARK  status: ('A' for Active; 'I' for Inactive)
REMARK    1  A    between atoms: C_1  and  C_2
REMARK    2  A    between atoms: C_2  and  C_3
REMARK    3  A    between atoms: C_3  and  C_4
REMARK    4  A    between atoms: C_3  and  C_28
REMARK    5  A    between atoms: C_5  and  C_6
REMARK    6  A    between atoms: C_6  and  C_7
REMARK    7  A    between atoms: C_6  and  C_8
REMARK    8  A    between atoms: C_12  and  C_27
REMARK    9  A    between atoms: C_20  and  C_26
REMARK   10  A    between atoms: C_23  and  O_25
REMARK   11  A    between atoms: C_28  and  C_29
REMARK   12  A    between atoms: C_28  and  C_30
REMARK                            x       y       z     vdW  Elec       q    Type
REMARK                         _______ _______ _______ _____ _____    ______ ____
ROOT
ATOM      1  C   UNL     1       1.195  -0.031   0.264  1.00  0.00    +0.000 C 
ATOM      2  C   UNL     1       1.462  -0.364  -1.235  1.00  0.00    +0.000 C 
ATOM      3  C   UNL     1       0.094  -0.538  -1.910  1.00  0.00    +0.000 C 
ATOM      4  C   UNL     1      -0.894  -0.062  -0.856  1.00  0.00    +0.000 C 
ATOM      5  C   UNL     1      -0.268  -0.528   0.480  1.00  0.00    +0.000 C 
ATOM      6  C   UNL     1      -1.057   0.177   1.599  1.00  0.00    +0.000 C 
ATOM      7  C   UNL     1      -2.561  -0.140   1.527  1.00  0.00    +0.000 C 
ATOM      8  C   UNL     1      -3.197   0.159   0.143  1.00  0.00    +0.000 C 
ATOM      9  C   UNL     1      -2.369  -0.450  -1.022  1.00  0.00    +0.000 C 
ATOM     10  C   UNL     1      -2.912   0.045  -2.370  1.00  0.00    +0.000 C 
ATOM     11  C   UNL     1      -4.405   0.023  -2.454  1.00  0.00    +0.000 C 
ATOM     12  C   UNL     1      -5.231  -0.117  -1.401  1.00  0.00    +0.000 C 
ATOM     13  C   UNL     1      -4.729  -0.223   0.045  1.00  0.00    +0.000 C 
ATOM     14  C   UNL     1      -5.538   0.739   0.979  1.00  0.00    +0.000 C 
ATOM     15  C   UNL     1      -6.683   1.496   0.296  1.00  0.00    +0.000 C 
ATOM     16  C   UNL     1      -7.549   0.570  -0.545  1.00  0.00    +0.000 C 
ATOM     17  C   UNL     1      -6.734  -0.158  -1.624  1.00  0.00    +0.000 C 
ATOM     18  C   UNL     1      -4.965  -1.685   0.501  1.00  0.00    +0.000 C 
ATOM     19  C   UNL     1      -0.306  -2.062   0.682  1.00  0.00    +0.000 C 
ENDROOT
BRANCH   1  20
ATOM     20  C   UNL     1       2.319  -0.569   1.187  1.00  0.00    +0.000 C 
ATOM     21  C   UNL     1       2.089  -0.255   2.667  1.00  0.00    +0.000 C 
BRANCH  20  23
ATOM     22  C   UNL     1       4.728  -0.712   0.438  1.00  0.00    +0.000 C 
ATOM     23  C   UNL     1       3.661   0.024   0.795  1.00  0.00    +0.000 C 
BRANCH  22  24
ATOM     24  C   UNL     1       6.115  -0.215   0.058  1.00  0.00    +0.000 C 
BRANCH  24  25
ATOM     25  C   UNL     1       6.532   1.172   0.642  1.00  0.00    +0.000 C 
ATOM     26  C   UNL     1       7.923   1.611   0.165  1.00  0.00    +0.000 C 
ATOM     27  C   UNL     1       6.545   1.154   2.180  1.00  0.00    +0.000 C 
ENDBRANCH  24  25
BRANCH  24  29
ATOM     28  C   UNL     1       5.488   0.657  -2.300  1.00  0.00    +0.000 C 
ATOM     29  C   UNL     1       6.288  -0.343  -1.474  1.00  0.00    +0.000 C 
ENDBRANCH  24  29
ENDBRANCH  22  24
ENDBRANCH  20  23
ENDBRANCH   1  20
BRANCH  16  30
ATOM     30  O   UNL     1      -8.180  -0.393   0.304  1.00  0.00    +0.000 OA
ATOM     31  H   UNL     1      -8.694   0.097   0.968  1.00  0.00    +0.000 HD
ENDBRANCH  16  30
TORSDOF 6
