REMARK  Name = SANC00324.pdb
AUTHORGENERATED BY OPEN BABEL 2.3.2
REMARK  3 active torsions:
REMARK  status: ('A' for Active; 'I' for Inactive)
REMARK    1  A    between atoms: C_4  and  O_6
REMARK    2  A    between atoms: C_25  and  O_26
REMARK    3  A    between atoms: O_26  and  C_27
REMARK                            x       y       z     vdW  Elec       q    Type
REMARK                         _______ _______ _______ _____ _____    ______ ____
ROOT
ATOM      1  C   UNL     1      -1.740  -0.773   0.398  1.00  0.00    +0.000 C 
ATOM      2  C   UNL     1      -3.281  -0.934   0.391  1.00  0.00    +0.000 C 
ATOM      3  C   UNL     1      -4.058   0.156  -0.354  1.00  0.00    +0.000 C 
ATOM      4  C   UNL     1      -3.472   1.508  -0.097  1.00  0.00    +0.000 C 
ATOM      5  O   UNL     1      -2.807   2.125  -1.208  1.00  0.00    +0.000 OA
ATOM      6  C   UNL     1      -1.970   1.645  -0.154  1.00  0.00    +0.000 C 
ATOM      7  C   UNL     1      -1.159   0.404  -0.427  1.00  0.00    +0.000 C 
ATOM      8  C   UNL     1      -1.188  -0.152  -1.862  1.00  0.00    +0.000 C 
ATOM      9  C   UNL     1      -1.104  -1.671  -1.674  1.00  0.00    +0.000 C 
ATOM     10  N   UNL     1      -1.063  -1.938  -0.217  1.00  0.00    +0.000 NA
ATOM     11  C   UNL     1       0.343  -1.964   0.271  1.00  0.00    +0.000 C 
ATOM     12  C   UNL     1       1.062  -0.618   0.258  1.00  0.00    +0.000 A 
ATOM     13  C   UNL     1       0.330   0.566  -0.069  1.00  0.00    +0.000 A 
ATOM     14  C   UNL     1       1.001   1.792  -0.151  1.00  0.00    +0.000 A 
ATOM     15  C   UNL     1       2.346   1.816   0.155  1.00  0.00    +0.000 A 
ATOM     16  O   UNL     1       3.116   2.939   0.132  1.00  0.00    +0.000 OA
ATOM     17  C   UNL     1       4.391   2.401   0.519  1.00  0.00    +0.000 C 
ATOM     18  O   UNL     1       4.358   0.984   0.767  1.00  0.00    +0.000 OA
ATOM     19  C   UNL     1       3.051   0.686   0.514  1.00  0.00    +0.000 A 
ATOM     20  C   UNL     1       2.439  -0.556   0.574  1.00  0.00    +0.000 A 
ENDROOT
BRANCH   3  21
ATOM     21  O   UNL     1      -5.426   0.137   0.052  1.00  0.00    +0.000 OA
ATOM     22  H   UNL     1      -5.459   0.202   1.021  1.00  0.00    +0.000 HD
ENDBRANCH   3  21
BRANCH  20  23
ATOM     23  O   UNL     1       3.019  -1.750   0.902  1.00  0.00    +0.000 OA
ATOM     24  C   UNL     1       4.404  -1.750   1.221  1.00  0.00    +0.000 C 
ENDBRANCH  20  23
TORSDOF 2
