REMARK  Name = /srv/my_project/app/compsite/backup/Dave/CORINA_stuff/newPDBs/SANC00337.pdb
AUTHORGENERATED BY OPEN BABEL 2.3.2
REMARK  8 active torsions:
REMARK  status: ('A' for Active; 'I' for Inactive)
REMARK    1  A    between atoms: C_1  and  O_2
REMARK    2  A    between atoms: O_2  and  C_3
REMARK    3  A    between atoms: C_4  and  O_5
REMARK    4  A    between atoms: C_10  and  O_11
REMARK    5  A    between atoms: O_11  and  C_12
REMARK    6  A    between atoms: C_13  and  O_14
REMARK    7  A    between atoms: C_16  and  O_17
REMARK    8  A    between atoms: C_22  and  O_23
REMARK                            x       y       z     vdW  Elec       q    Type
REMARK                         _______ _______ _______ _____ _____    ______ ____
ROOT
ATOM      1  C   UNL     1       3.472  -0.557   0.183  1.00  0.00    +0.000 A 
ATOM      2  C   UNL     1       2.909  -1.749   0.667  1.00  0.00    +0.000 A 
ATOM      3  C   UNL     1       1.535  -1.940   0.759  1.00  0.00    +0.000 A 
ATOM      4  C   UNL     1       0.681  -0.918   0.360  1.00  0.00    +0.000 A 
ATOM      5  O   UNL     1      -0.661  -1.174   0.478  1.00  0.00    +0.000 OA
ATOM      6  C   UNL     1      -1.567  -0.204   0.100  1.00  0.00    +0.000 A 
ATOM      7  C   UNL     1      -2.936  -0.519   0.242  1.00  0.00    +0.000 A 
ATOM      8  C   UNL     1      -3.888   0.443  -0.132  1.00  0.00    +0.000 A 
ATOM      9  C   UNL     1      -3.489   1.686  -0.635  1.00  0.00    +0.000 A 
ATOM     10  C   UNL     1      -2.136   1.979  -0.768  1.00  0.00    +0.000 A 
ATOM     11  C   UNL     1      -1.175   1.036  -0.401  1.00  0.00    +0.000 A 
ATOM     12  C   UNL     1       0.259   1.318  -0.531  1.00  0.00    +0.000 A 
ATOM     13  O   UNL     1       0.651   2.398  -0.968  1.00  0.00    +0.000 OA
ATOM     14  C   UNL     1       1.212   0.277  -0.125  1.00  0.00    +0.000 A 
ATOM     15  C   UNL     1       2.607   0.468  -0.218  1.00  0.00    +0.000 A 
ENDROOT
BRANCH   1  17
ATOM     16  C   UNL     1       5.535   0.571  -0.293  1.00  0.00    +0.000 C 
ATOM     17  O   UNL     1       4.844  -0.579   0.176  1.00  0.00    +0.000 OA
ENDBRANCH   1  17
BRANCH   2  18
ATOM     18  O   UNL     1       3.721  -2.777   1.069  1.00  0.00    +0.000 OA
ATOM     19  H   UNL     1       4.633  -2.451   0.928  1.00  0.00    +0.000 HD
ENDBRANCH   2  18
BRANCH   7  20
ATOM     20  O   UNL     1      -3.172  -1.772   0.746  1.00  0.00    +0.000 OA
ATOM     21  C   UNL     1      -4.511  -2.201   0.933  1.00  0.00    +0.000 C 
ENDBRANCH   7  20
BRANCH   8  22
ATOM     22  O   UNL     1      -5.230   0.203  -0.021  1.00  0.00    +0.000 OA
ATOM     23  H   UNL     1      -5.727   0.980  -0.326  1.00  0.00    +0.000 HD
ENDBRANCH   8  22
BRANCH  10  24
ATOM     24  O   UNL     1      -1.824   3.214  -1.266  1.00  0.00    +0.000 OA
ATOM     25  H   UNL     1      -0.845   3.290  -1.308  1.00  0.00    +0.000 HD
ENDBRANCH  10  24
BRANCH  15  26
ATOM     26  O   UNL     1       3.112   1.650  -0.697  1.00  0.00    +0.000 OA
ATOM     27  H   UNL     1       2.365   2.247  -0.927  1.00  0.00    +0.000 HD
ENDBRANCH  15  26
TORSDOF 6
