REMARK  Name = SANCDB_01058_minRM1.pdb
AUTHORGENERATED BY OPEN BABEL 2.3.2
REMARK  6 active torsions:
REMARK  status: ('A' for Active; 'I' for Inactive)
REMARK    1  A    between atoms: C_1  and  C_2
REMARK    2  A    between atoms: C_2  and  O_3
REMARK    3  A    between atoms: O_3  and  C_4
REMARK    4  A    between atoms: C_4  and  C_5
REMARK    5  A    between atoms: C_7  and  O_14
REMARK    6  A    between atoms: C_8  and  O_13
REMARK                            x       y       z     vdW  Elec       q    Type
REMARK                         _______ _______ _______ _____ _____    ______ ____
ROOT
ATOM      1  C   UNL     1      -0.520  -0.133   0.130  1.00  0.00    +0.000 A 
ATOM      2  C   UNL     1      -1.107   1.127  -0.104  1.00  0.00    +0.000 A 
ATOM      3  C   UNL     1      -2.441   1.228  -0.488  1.00  0.00    +0.000 A 
ATOM      4  C   UNL     1      -3.213   0.081  -0.654  1.00  0.00    +0.000 A 
ATOM      5  C   UNL     1      -2.649  -1.186  -0.448  1.00  0.00    +0.000 A 
ATOM      6  C   UNL     1      -1.298  -1.297  -0.061  1.00  0.00    +0.000 A 
ATOM      7 BR   UNL     1      -0.501  -3.017   0.202  1.00  0.00    +0.000 Br
ATOM      8 BR   UNL     1      -3.772  -2.709  -0.709  1.00  0.00    +0.000 Br
ENDROOT
BRANCH   4   9
ATOM      9  O   UNL     1      -4.524   0.232  -1.030  1.00  0.00    +0.000 OA
ATOM     10  H   UNL     1      -4.912  -0.655  -1.123  1.00  0.00    +0.000 HD
ENDBRANCH   4   9
BRANCH   3  11
ATOM     11  O   UNL     1      -3.004   2.453  -0.706  1.00  0.00    +0.000 OA
ATOM     12  H   UNL     1      -2.324   3.141  -0.633  1.00  0.00    +0.000 HD
ENDBRANCH   3  11
BRANCH   1  13
ATOM     13  C   UNL     1       0.936  -0.166   0.527  1.00  0.00    +0.000 C 
BRANCH  13  14
ATOM     14  O   UNL     1       1.708  -0.347  -0.655  1.00  0.00    +0.000 OA
BRANCH  14  16
ATOM     15  C   UNL     1       3.879   0.454   0.118  1.00  0.00    +0.000 C 
ATOM     16  C   UNL     1       3.061  -0.715  -0.401  1.00  0.00    +0.000 C 
ENDBRANCH  14  16
ENDBRANCH  13  14
ENDBRANCH   1  13
TORSDOF 5
