REMARK  Name = /srv/my_project/app/compsite/backup/Dave/CORINA_stuff/newPDBs/SANC00546.pdb
AUTHORGENERATED BY OPEN BABEL 2.3.2
REMARK  22 active torsions:
REMARK  status: ('A' for Active; 'I' for Inactive)
REMARK    1  A    between atoms: C_2  and  C_3
REMARK    2  A    between atoms: C_3  and  C_5
REMARK    3  A    between atoms: C_3  and  C_6
REMARK    4  A    between atoms: C_6  and  C_7
REMARK    5  A    between atoms: C_7  and  C_8
REMARK    6  A    between atoms: C_8  and  O_10
REMARK    7  A    between atoms: C_8  and  C_11
REMARK    8  A    between atoms: C_11  and  C_12
REMARK    9  A    between atoms: C_11  and  C_13
REMARK   10  A    between atoms: C_11  and  O_14
REMARK   11  A    between atoms: O_14  and  C_15
REMARK   12  A    between atoms: C_18  and  C_20
REMARK   13  A    between atoms: C_20  and  O_21
REMARK   14  A    between atoms: C_22  and  O_24
REMARK   15  A    between atoms: C_25  and  O_27
REMARK   16  A    between atoms: C_28  and  O_30
REMARK   17  A    between atoms: C_33  and  C_34
REMARK   18  A    between atoms: C_35  and  C_36
REMARK   19  A    between atoms: C_45  and  O_47
REMARK   20  A    between atoms: C_48  and  C_49
REMARK   21  A    between atoms: C_48  and  C_50
REMARK   22  A    between atoms: C_54  and  O_56
REMARK                            x       y       z     vdW  Elec       q    Type
REMARK                         _______ _______ _______ _____ _____    ______ ____
ROOT
ATOM      1  C   UNL     1      -0.721   0.928   2.347  1.00  0.00    +0.000 C 
ATOM      2  C   UNL     1      -0.761   2.307   1.633  1.00  0.00    +0.000 C 
ATOM      3  C   UNL     1      -1.786   2.189   0.478  1.00  0.00    +0.000 C 
ATOM      4  C   UNL     1      -2.569   0.895   0.767  1.00  0.00    +0.000 C 
ATOM      5  C   UNL     1      -3.650   1.265   1.834  1.00  0.00    +0.000 C 
ATOM      6  C   UNL     1      -1.407  -0.023   1.319  1.00  0.00    +0.000 C 
ATOM      7  C   UNL     1      -0.364  -0.457   0.244  1.00  0.00    +0.000 C 
ATOM      8  C   UNL     1      -2.049  -1.291   1.904  1.00  0.00    +0.000 C 
ATOM      9  C   UNL     1      -2.857  -2.042   0.835  1.00  0.00    +0.000 C 
ATOM     10  C   UNL     1      -3.837  -1.173   0.022  1.00  0.00    +0.000 C 
ATOM     11  C   UNL     1      -4.610  -1.992  -0.983  1.00  0.00    +0.000 C 
ATOM     12  C   UNL     1      -5.373  -1.311   0.140  1.00  0.00    +0.000 C 
ATOM     13  C   UNL     1      -6.033  -2.229   1.145  1.00  0.00    +0.000 C 
ATOM     14  O   UNL     1      -5.476  -2.597   2.172  1.00  0.00    +0.000 OA
ATOM     15  C   UNL     1      -7.481  -2.543   0.847  1.00  0.00    +0.000 C 
ATOM     16  C   UNL     1      -7.841  -2.189  -0.596  1.00  0.00    +0.000 C 
ATOM     17  C   UNL     1      -7.595  -0.680  -0.959  1.00  0.00    +0.000 C 
ATOM     18  C   UNL     1      -7.510  -0.584  -2.499  1.00  0.00    +0.000 C 
ATOM     19  C   UNL     1      -8.797   0.191  -0.519  1.00  0.00    +0.000 C 
ATOM     20  C   UNL     1      -6.303  -0.152  -0.221  1.00  0.00    +0.000 C 
ATOM     21  C   UNL     1      -5.669   1.140  -0.751  1.00  0.00    +0.000 C 
ATOM     22  C   UNL     1      -4.235   1.065  -1.257  1.00  0.00    +0.000 C 
ATOM     23  C   UNL     1      -3.250   0.186  -0.451  1.00  0.00    +0.000 C 
ENDROOT
BRANCH   1  24
ATOM     24  C   UNL     1       0.642   0.503   2.973  1.00  0.00    +0.000 C 
ATOM     25  C   UNL     1       0.729   1.075   4.403  1.00  0.00    +0.000 C 
BRANCH  24  26
ATOM     26  C   UNL     1       1.905   0.929   2.186  1.00  0.00    +0.000 C 
BRANCH  26  27
ATOM     27  C   UNL     1       3.126   0.062   2.511  1.00  0.00    +0.000 C 
BRANCH  27  28
ATOM     28  C   UNL     1       4.476   0.563   1.973  1.00  0.00    +0.000 C 
BRANCH  28  29
ATOM     29  C   UNL     1       4.708   0.686   0.427  1.00  0.00    +0.000 C 
ATOM     30  C   UNL     1       4.215  -0.577  -0.290  1.00  0.00    +0.000 C 
ATOM     31  C   UNL     1       4.067   1.948  -0.176  1.00  0.00    +0.000 C 
BRANCH  29  32
ATOM     32  O   UNL     1       6.149   0.850   0.337  1.00  0.00    +0.000 OA
BRANCH  32  33
ATOM     33  C   UNL     1       6.767   0.696  -0.941  1.00  0.00    +0.000 C 
ATOM     34  O   UNL     1       7.063  -0.688  -1.151  1.00  0.00    +0.000 OA
ATOM     35  C   UNL     1       7.521  -0.937  -2.494  1.00  0.00    +0.000 C 
ATOM     36  C   UNL     1       8.617   0.070  -2.922  1.00  0.00    +0.000 C 
ATOM     37  C   UNL     1       9.206   0.772  -1.688  1.00  0.00    +0.000 C 
ATOM     38  C   UNL     1       8.086   1.520  -0.935  1.00  0.00    +0.000 C 
BRANCH  36  39
ATOM     39  O   UNL     1       8.024   1.081  -3.763  1.00  0.00    +0.000 OA
ATOM     40  H   UNL     1       7.886   0.661  -4.635  1.00  0.00    +0.000 HD
ENDBRANCH  36  39
BRANCH  37  41
ATOM     41  O   UNL     1       9.869  -0.178  -0.846  1.00  0.00    +0.000 OA
ATOM     42  H   UNL     1       9.189  -0.604  -0.288  1.00  0.00    +0.000 HD
ENDBRANCH  37  41
BRANCH  38  43
ATOM     43  O   UNL     1       7.851   2.804  -1.543  1.00  0.00    +0.000 OA
ATOM     44  H   UNL     1       7.793   2.643  -2.509  1.00  0.00    +0.000 HD
ENDBRANCH  38  43
BRANCH  35  45
ATOM     45  C   UNL     1       8.026  -2.382  -2.554  1.00  0.00    +0.000 C 
BRANCH  45  46
ATOM     46  O   UNL     1       8.342  -2.739  -3.894  1.00  0.00    +0.000 OA
ATOM     47  H   UNL     1       8.650  -3.663  -3.875  1.00  0.00    +0.000 HD
ENDBRANCH  45  46
ENDBRANCH  35  45
ENDBRANCH  32  33
ENDBRANCH  29  32
ENDBRANCH  28  29
BRANCH  28  48
ATOM     48  O   UNL     1       4.789   1.808   2.615  1.00  0.00    +0.000 OA
ATOM     49  H   UNL     1       5.661   2.068   2.258  1.00  0.00    +0.000 HD
ENDBRANCH  28  48
ENDBRANCH  27  28
ENDBRANCH  26  27
ENDBRANCH  24  26
ENDBRANCH   1  24
BRANCH  16  50
ATOM     50  O   UNL     1      -9.200  -2.548  -0.849  1.00  0.00    +0.000 OA
ATOM     51  H   UNL     1      -9.290  -3.507  -0.709  1.00  0.00    +0.000 HD
ENDBRANCH  16  50
BRANCH  22  52
ATOM     52  O   UNL     1      -4.264   0.608  -2.618  1.00  0.00    +0.000 OA
ATOM     53  H   UNL     1      -4.749   1.270  -3.140  1.00  0.00    +0.000 HD
ENDBRANCH  22  52
TORSDOF 15
