REMARK  Name = /srv/my_project/app/compsite/backup/Dave/CORINA_stuff/newPDBs/SANC00246.pdb
AUTHORGENERATED BY OPEN BABEL 2.3.2
REMARK  25 active torsions:
REMARK  status: ('A' for Active; 'I' for Inactive)
REMARK    1  A    between atoms: C_2  and  C_19
REMARK    2  A    between atoms: C_5  and  C_6
REMARK    3  A    between atoms: C_5  and  C_7
REMARK    4  A    between atoms: C_9  and  O_11
REMARK    5  A    between atoms: O_11  and  C_12
REMARK    6  A    between atoms: C_12  and  C_13
REMARK    7  A    between atoms: C_16  and  C_17
REMARK    8  A    between atoms: C_16  and  O_18
REMARK    9  A    between atoms: C_19  and  C_20
REMARK   10  A    between atoms: C_21  and  C_22
REMARK   11  A    between atoms: C_23  and  C_24
REMARK   12  A    between atoms: C_24  and  C_25
REMARK   13  A    between atoms: C_26  and  C_27
REMARK   14  A    between atoms: C_28  and  C_29
REMARK   15  A    between atoms: C_30  and  C_31
REMARK   16  A    between atoms: C_30  and  C_32
REMARK   17  A    between atoms: C_33  and  C_34
REMARK   18  A    between atoms: C_35  and  C_36
REMARK   19  A    between atoms: C_35  and  C_37
REMARK   20  A    between atoms: C_37  and  C_39
REMARK   21  A    between atoms: C_39  and  C_40
REMARK   22  A    between atoms: C_42  and  C_43
REMARK   23  A    between atoms: C_45  and  O_47
REMARK   24  A    between atoms: C_49  and  C_50
REMARK   25  A    between atoms: C_49  and  C_51
REMARK                            x       y       z     vdW  Elec       q    Type
REMARK                         _______ _______ _______ _____ _____    ______ ____
ROOT
ATOM      1  C   UNL     1       1.820  -0.147   0.506  1.00  0.00    +0.000 C 
ATOM      2  C   UNL     1       1.568   0.558   1.816  1.00  0.00    +0.000 C 
ATOM      3  C   UNL     1       0.854  -0.652  -0.292  1.00  0.00    +0.000 C 
ENDROOT
BRANCH   1   5
ATOM      4  C   UNL     1       4.307   0.135   0.738  1.00  0.00    +0.000 C 
ATOM      5  C   UNL     1       3.217  -0.291   0.077  1.00  0.00    +0.000 C 
BRANCH   4   8
ATOM      6  C   UNL     1       6.812   0.317   0.810  1.00  0.00    +0.000 C 
ATOM      7  C   UNL     1       6.928   1.010   2.147  1.00  0.00    +0.000 C 
ATOM      8  C   UNL     1       5.652  -0.053   0.226  1.00  0.00    +0.000 C 
BRANCH   6   9
ATOM      9  C   UNL     1       8.062   0.033   0.108  1.00  0.00    +0.000 C 
ATOM     10  C   UNL     1       9.242   0.326   0.572  1.00  0.00    +0.000 C 
ATOM     11  C   UNL     1      10.434   0.621   1.032  1.00  0.00    +0.000 C 
ATOM     12  C   UNL     1      11.161   1.912   0.608  1.00  0.00    +0.000 C 
ATOM     13  C   UNL     1      11.717   1.746  -0.822  1.00  0.00    +0.000 C 
ATOM     14  C   UNL     1      10.190   3.117   0.603  1.00  0.00    +0.000 C 
ATOM     15  C   UNL     1      12.305   2.259   1.593  1.00  0.00    +0.000 C 
ATOM     16  C   UNL     1      13.296   1.118   1.856  1.00  0.00    +0.000 C 
ATOM     17  C   UNL     1      12.674  -0.278   1.737  1.00  0.00    +0.000 C 
ATOM     18  C   UNL     1      11.168  -0.293   2.013  1.00  0.00    +0.000 C 
ATOM     19  C   UNL     1      10.675  -1.750   1.995  1.00  0.00    +0.000 C 
BRANCH  18  20
ATOM     20  O   UNL     1      10.944   0.208   3.333  1.00  0.00    +0.000 OA
ATOM     21  H   UNL     1       9.980   0.277   3.448  1.00  0.00    +0.000 HD
ENDBRANCH  18  20
BRANCH  16  22
ATOM     22  O   UNL     1      14.390   1.171   0.911  1.00  0.00    +0.000 OA
BRANCH  22  23
ATOM     23  C   UNL     1      15.390   2.051   1.190  1.00  0.00    +0.000 C 
ATOM     24  C   UNL     1      16.443   1.976   0.128  1.00  0.00    +0.000 C 
ATOM     25  O   UNL     1      15.435   2.802   2.153  1.00  0.00    +0.000 OA
ENDBRANCH  22  23
ENDBRANCH  16  22
ENDBRANCH   6   9
ENDBRANCH   4   8
ENDBRANCH   1   5
BRANCH   3  26
ATOM     26  C   UNL     1      -0.579  -0.623  -0.073  1.00  0.00    +0.000 C 
ATOM     27  C   UNL     1      -1.454  -1.176  -0.929  1.00  0.00    +0.000 C 
BRANCH  27  28
ATOM     28  C   UNL     1      -2.888  -1.144  -0.710  1.00  0.00    +0.000 C 
ATOM     29  C   UNL     1      -3.853  -1.680  -1.488  1.00  0.00    +0.000 C 
ATOM     30  C   UNL     1      -3.599  -2.438  -2.768  1.00  0.00    +0.000 C 
BRANCH  29  31
ATOM     31  C   UNL     1      -5.249  -1.519  -1.066  1.00  0.00    +0.000 C 
ATOM     32  C   UNL     1      -6.337  -1.996  -1.695  1.00  0.00    +0.000 C 
BRANCH  32  33
ATOM     33  C   UNL     1      -7.681  -1.774  -1.198  1.00  0.00    +0.000 C 
ATOM     34  C   UNL     1      -8.817  -2.248  -1.744  1.00  0.00    +0.000 C 
ATOM     35  C   UNL     1      -8.958  -3.147  -2.931  1.00  0.00    +0.000 C 
BRANCH  34  36
ATOM     36  C   UNL     1     -10.085  -1.858  -1.040  1.00  0.00    +0.000 C 
ATOM     37  O   UNL     1     -10.144  -1.901   0.188  1.00  0.00    +0.000 OA
BRANCH  36  38
ATOM     38  C   UNL     1     -11.254  -1.432  -1.913  1.00  0.00    +0.000 C 
BRANCH  38  39
ATOM     39  C   UNL     1     -12.252  -0.523  -1.213  1.00  0.00    +0.000 C 
ATOM     40  O   UNL     1     -13.615  -0.886  -1.502  1.00  0.00    +0.000 OA
ATOM     41  C   UNL     1     -13.204  -1.105  -0.141  1.00  0.00    +0.000 C 
ATOM     42  C   UNL     1     -13.214  -2.562   0.229  1.00  0.00    +0.000 C 
ATOM     43  C   UNL     1     -13.923  -0.205   0.833  1.00  0.00    +0.000 C 
ATOM     44  C   UNL     1     -13.330   1.197   0.932  1.00  0.00    +0.000 C 
ATOM     45  C   UNL     1     -13.056   1.787  -0.448  1.00  0.00    +0.000 C 
ATOM     46  C   UNL     1     -12.015   1.000  -1.296  1.00  0.00    +0.000 C 
ATOM     47  C   UNL     1     -10.584   1.356  -0.842  1.00  0.00    +0.000 C 
ATOM     48  C   UNL     1     -12.176   1.492  -2.756  1.00  0.00    +0.000 C 
BRANCH  44  49
ATOM     49  O   UNL     1     -12.145   1.214   1.719  1.00  0.00    +0.000 OA
ATOM     50  H   UNL     1     -12.280   0.645   2.496  1.00  0.00    +0.000 HD
ENDBRANCH  44  49
ENDBRANCH  38  39
ENDBRANCH  36  38
ENDBRANCH  34  36
ENDBRANCH  32  33
ENDBRANCH  29  31
ENDBRANCH  27  28
ENDBRANCH   3  26
TORSDOF 14
