REMARK  Name = SANCDB_00863_minRM1.pdb
AUTHORGENERATED BY OPEN BABEL 2.3.2
REMARK  6 active torsions:
REMARK  status: ('A' for Active; 'I' for Inactive)
REMARK    1  A    between atoms: C_1  and  C_2
REMARK    2  A    between atoms: C_3  and  C_4
REMARK    3  A    between atoms: C_8  and  O_10
REMARK    4  A    between atoms: O_10  and  C_11
REMARK    5  A    between atoms: C_13  and  C_16
REMARK    6  A    between atoms: C_14  and  C_15
REMARK                            x       y       z     vdW  Elec       q    Type
REMARK                         _______ _______ _______ _____ _____    ______ ____
ROOT
ATOM      1  C   UNL     1      -3.171   0.211  -0.210  1.00  0.00    +0.000 A 
ATOM      2  C   UNL     1      -2.083   1.094  -0.270  1.00  0.00    +0.000 A 
ATOM      3  C   UNL     1      -0.811   0.604  -0.021  1.00  0.00    +0.000 A 
ATOM      4  C   UNL     1      -0.617  -0.736   0.279  1.00  0.00    +0.000 A 
ATOM      5  C   UNL     1      -1.666  -1.640   0.349  1.00  0.00    +0.000 A 
ATOM      6  C   UNL     1      -2.955  -1.148   0.112  1.00  0.00    +0.000 A 
ATOM      7  O   UNL     1       0.704  -1.058   0.474  1.00  0.00    +0.000 OA
ATOM      8  C   UNL     1       1.377   0.225   0.632  1.00  0.00    +0.000 C 
ATOM      9  C   UNL     1       0.510   1.290  -0.086  1.00  0.00    +0.000 C 
ATOM     10  C   UNL     1       0.543   2.648   0.604  1.00  0.00    +0.000 C 
ENDROOT
BRANCH   8  11
ATOM     11  C   UNL     1       2.825   0.075   0.185  1.00  0.00    +0.000 A 
ATOM     12  C   UNL     1       3.491   1.039  -0.591  1.00  0.00    +0.000 A 
ATOM     13  C   UNL     1       4.816   0.823  -0.918  1.00  0.00    +0.000 A 
ATOM     14  C   UNL     1       5.498  -0.293  -0.502  1.00  0.00    +0.000 A 
ATOM     15  C   UNL     1       4.895  -1.260   0.267  1.00  0.00    +0.000 A 
ATOM     16  C   UNL     1       3.553  -1.068   0.613  1.00  0.00    +0.000 A 
ATOM     17  O   UNL     1       6.788  -0.306  -0.931  1.00  0.00    +0.000 OA
ATOM     18  C   UNL     1       6.837   0.929  -1.674  1.00  0.00    +0.000 C 
ATOM     19  O   UNL     1       5.592   1.658  -1.661  1.00  0.00    +0.000 OA
ENDBRANCH   8  11
BRANCH   1  22
ATOM     20  C   UNL     1      -6.839   0.659  -1.378  1.00  0.00    +0.000 C 
ATOM     21  C   UNL     1      -5.472   0.104  -1.138  1.00  0.00    +0.000 C 
ATOM     22  C   UNL     1      -4.521   0.746  -0.441  1.00  0.00    +0.000 C 
ENDBRANCH   1  22
BRANCH   5  23
ATOM     23  O   UNL     1      -1.343  -2.930   0.661  1.00  0.00    +0.000 OA
ATOM     24  C   UNL     1      -2.401  -3.878   0.672  1.00  0.00    +0.000 C 
ENDBRANCH   5  23
TORSDOF 3
