REMARK  Name = /srv/my_project/app/compsite/backup/Dave/CORINA_stuff/newPDBs/SANC00462.pdb
AUTHORGENERATED BY OPEN BABEL 2.3.2
REMARK  6 active torsions:
REMARK  status: ('A' for Active; 'I' for Inactive)
REMARK    1  A    between atoms: C_1  and  O_2
REMARK    2  A    between atoms: O_2  and  C_3
REMARK    3  A    between atoms: C_6  and  O_8
REMARK    4  A    between atoms: O_8  and  C_9
REMARK    5  A    between atoms: C_10  and  O_12
REMARK    6  A    between atoms: C_13  and  C_15
REMARK                            x       y       z     vdW  Elec       q    Type
REMARK                         _______ _______ _______ _____ _____    ______ ____
ROOT
ATOM      1  C   UNL     1       0.903  -0.800  -0.691  1.00  0.00    +0.000 C 
ATOM      2  C   UNL     1      -0.536  -1.107  -0.274  1.00  0.00    +0.000 C 
ATOM      3  C   UNL     1      -1.205   0.090   0.409  1.00  0.00    +0.000 C 
ATOM      4  C   UNL     1      -0.614   1.406  -0.113  1.00  0.00    +0.000 C 
ATOM      5  C   UNL     1       0.912   1.437   0.106  1.00  0.00    +0.000 C 
ATOM      6  C   UNL     1       1.273   2.183   1.385  1.00  0.00    +0.000 C 
ATOM      7  O   UNL     1       1.470   0.117   0.239  1.00  0.00    +0.000 OA
ENDROOT
BRANCH   1   9
ATOM      8  C   UNL     1       2.947  -1.872  -1.184  1.00  0.00    +0.000 C 
ATOM      9  O   UNL     1       1.622  -2.034  -0.697  1.00  0.00    +0.000 OA
ENDBRANCH   1   9
BRANCH   3  10
ATOM     10  O   UNL     1      -2.618   0.113   0.139  1.00  0.00    +0.000 OA
ATOM     11  C   UNL     1      -3.334  -0.893   0.848  1.00  0.00    +0.000 C 
ENDBRANCH   3  10
BRANCH   4  12
ATOM     12  O   UNL     1      -0.894   1.493  -1.523  1.00  0.00    +0.000 OA
ATOM     13  H   UNL     1      -1.850   1.293  -1.600  1.00  0.00    +0.000 HD
ENDBRANCH   4  12
TORSDOF 3
