REMARK  Name = /srv/my_project/app/compsite/backup/Dave/CORINA_stuff/newPDBs/SANC00224.pdb
AUTHORGENERATED BY OPEN BABEL 2.3.2
REMARK  5 active torsions:
REMARK  status: ('A' for Active; 'I' for Inactive)
REMARK    1  A    between atoms: C_7  and  C_8
REMARK    2  A    between atoms: C_11  and  C_13
REMARK    3  A    between atoms: C_13  and  C_14
REMARK    4  A    between atoms: C_13  and  C_15
REMARK    5  A    between atoms: C_16  and  O_17
REMARK                            x       y       z     vdW  Elec       q    Type
REMARK                         _______ _______ _______ _____ _____    ______ ____
ROOT
ATOM      1  C   UNL     1      -1.761   2.838  -0.065  1.00  0.00    +0.000 C 
ATOM      2  C   UNL     1      -1.913   1.579   0.372  1.00  0.00    +0.000 C 
ATOM      3  C   UNL     1      -3.217   1.111   0.997  1.00  0.00    +0.000 C 
ATOM      4  C   UNL     1      -3.713  -0.222   0.438  1.00  0.00    +0.000 C 
ATOM      5  C   UNL     1      -2.581  -1.230   0.283  1.00  0.00    +0.000 C 
ATOM      6  O   UNL     1      -2.702  -2.378   0.708  1.00  0.00    +0.000 OA
ATOM      7  C   UNL     1      -1.326  -0.737  -0.460  1.00  0.00    +0.000 C 
ATOM      8  C   UNL     1      -1.770  -0.430  -1.911  1.00  0.00    +0.000 C 
ATOM      9  C   UNL     1      -0.208  -1.811  -0.537  1.00  0.00    +0.000 C 
ATOM     10  C   UNL     1       0.841  -1.676   0.567  1.00  0.00    +0.000 C 
ATOM     11  C   UNL     1       1.555  -0.293   0.593  1.00  0.00    +0.000 C 
ATOM     12  C   UNL     1       0.622   0.840   0.059  1.00  0.00    +0.000 C 
ATOM     13  C   UNL     1      -0.848   0.488   0.374  1.00  0.00    +0.000 C 
ENDROOT
BRANCH  11  14
ATOM     14  C   UNL     1       2.970  -0.305  -0.066  1.00  0.00    +0.000 C 
ATOM     15  C   UNL     1       3.916  -1.324   0.588  1.00  0.00    +0.000 C 
ATOM     16  C   UNL     1       3.646   1.073   0.012  1.00  0.00    +0.000 C 
ENDBRANCH  11  14
BRANCH  12  17
ATOM     17  O   UNL     1       0.821   1.010  -1.342  1.00  0.00    +0.000 OA
ATOM     18  H   UNL     1       0.221   1.710  -1.647  1.00  0.00    +0.000 HD
ENDBRANCH  12  17
TORSDOF 2
