REMARK  Name = /srv/my_project/app/compsite/backup/Dave/CORINA_stuff/newPDBs/SANC00222.pdb
AUTHORGENERATED BY OPEN BABEL 2.3.2
REMARK  5 active torsions:
REMARK  status: ('A' for Active; 'I' for Inactive)
REMARK    1  A    between atoms: C_1  and  O_2
REMARK    2  A    between atoms: O_2  and  C_3
REMARK    3  A    between atoms: C_8  and  O_9
REMARK    4  A    between atoms: C_16  and  O_17
REMARK    5  A    between atoms: C_19  and  O_20
REMARK                            x       y       z     vdW  Elec       q    Type
REMARK                         _______ _______ _______ _____ _____    ______ ____
ROOT
ATOM      1  C   UNL     1       2.938  -0.021   1.228  1.00  0.00    +0.000 A 
ATOM      2  C   UNL     1       1.708   0.184   0.599  1.00  0.00    +0.000 A 
ATOM      3  C   UNL     1       1.144  -0.894  -0.054  1.00  0.00    +0.000 A 
ATOM      4  C   UNL     1       1.749  -2.128  -0.101  1.00  0.00    +0.000 A 
ATOM      5  C   UNL     1       2.958  -2.370   0.503  1.00  0.00    +0.000 A 
ATOM      6  C   UNL     1       3.544  -1.297   1.169  1.00  0.00    +0.000 A 
ATOM      7  C   UNL     1       0.651  -2.752  -0.913  1.00  0.00    +0.000 C 
ATOM      8  C   UNL     1      -0.048  -1.337  -0.876  1.00  0.00    +0.000 C 
ATOM      9  C   UNL     1      -0.165  -0.657  -2.228  1.00  0.00    +0.000 C 
ATOM     10  O   UNL     1      -0.603   0.703  -2.090  1.00  0.00    +0.000 OA
ATOM     11  C   UNL     1      -1.758   0.854  -1.370  1.00  0.00    +0.000 A 
ATOM     12  C   UNL     1      -2.489   2.013  -1.633  1.00  0.00    +0.000 A 
ATOM     13  C   UNL     1      -3.673   2.258  -0.944  1.00  0.00    +0.000 A 
ATOM     14  C   UNL     1      -4.139   1.367   0.017  1.00  0.00    +0.000 A 
ATOM     15  C   UNL     1      -3.399   0.221   0.295  1.00  0.00    +0.000 A 
ATOM     16  C   UNL     1      -2.204  -0.040  -0.391  1.00  0.00    +0.000 A 
ATOM     17  C   UNL     1      -1.377  -1.224  -0.079  1.00  0.00    +0.000 C 
ATOM     18  O   UNL     1      -1.794  -2.013   0.774  1.00  0.00    +0.000 OA
ENDROOT
BRANCH   1  20
ATOM     19  C   UNL     1       3.069   2.215   2.023  1.00  0.00    +0.000 C 
ATOM     20  O   UNL     1       3.654   0.921   1.923  1.00  0.00    +0.000 OA
ENDBRANCH   1  20
BRANCH   6  21
ATOM     21  O   UNL     1       4.752  -1.505   1.781  1.00  0.00    +0.000 OA
ATOM     22  H   UNL     1       4.978  -0.645   2.187  1.00  0.00    +0.000 HD
ENDBRANCH   6  21
BRANCH  13  23
ATOM     23  O   UNL     1      -4.356   3.399  -1.244  1.00  0.00    +0.000 OA
ATOM     24  H   UNL     1      -5.158   3.439  -0.695  1.00  0.00    +0.000 HD
ENDBRANCH  13  23
BRANCH  15  25
ATOM     25  O   UNL     1      -3.900  -0.606   1.265  1.00  0.00    +0.000 OA
ATOM     26  H   UNL     1      -3.276  -1.360   1.376  1.00  0.00    +0.000 HD
ENDBRANCH  15  25
TORSDOF 4
