REMARK  Name = /srv/my_project/app/compsite/backup/Dave/CORINA_stuff/newPDBs/SANC00144.pdb
AUTHORGENERATED BY OPEN BABEL 2.3.2
REMARK  15 active torsions:
REMARK  status: ('A' for Active; 'I' for Inactive)
REMARK    1  A    between atoms: C_2  and  C_3
REMARK    2  A    between atoms: C_3  and  C_4
REMARK    3  A    between atoms: C_4  and  C_5
REMARK    4  A    between atoms: C_5  and  C_6
REMARK    5  A    between atoms: C_6  and  C_7
REMARK    6  A    between atoms: C_7  and  C_8
REMARK    7  A    between atoms: C_8  and  C_9
REMARK    8  A    between atoms: C_10  and  C_11
REMARK    9  A    between atoms: C_11  and  C_12
REMARK   10  A    between atoms: C_12  and  C_13
REMARK   11  A    between atoms: C_12  and  O_18
REMARK   12  A    between atoms: C_13  and  N_14
REMARK   13  A    between atoms: C_15  and  C_16
REMARK   14  A    between atoms: O_18  and  C_19
REMARK   15  A    between atoms: C_19  and  C_20
REMARK                            x       y       z     vdW  Elec       q    Type
REMARK                         _______ _______ _______ _____ _____    ______ ____
ROOT
ATOM      1  C   UNL     1      -1.273   1.298  -0.192  1.00  0.00    +0.000 C 
ENDROOT
BRANCH   1   3
ATOM      2  C   UNL     1       0.597  -0.360  -0.476  1.00  0.00    +0.000 C 
ATOM      3  C   UNL     1      -0.257   0.305   0.317  1.00  0.00    +0.000 C 
BRANCH   2   4
ATOM      4  C   UNL     1       1.638  -1.368  -0.064  1.00  0.00    +0.000 C 
BRANCH   4   5
ATOM      5  C   UNL     1       2.035  -1.446   1.416  1.00  0.00    +0.000 C 
BRANCH   5   6
ATOM      6  C   UNL     1       2.743  -0.207   1.980  1.00  0.00    +0.000 C 
BRANCH   6   7
ATOM      7  C   UNL     1       4.015   0.229   1.244  1.00  0.00    +0.000 C 
BRANCH   7   8
ATOM      8  C   UNL     1       5.105  -0.847   1.224  1.00  0.00    +0.000 C 
BRANCH   8   9
ATOM      9  C   UNL     1       6.427  -0.346   0.633  1.00  0.00    +0.000 C 
BRANCH   9  11
ATOM     10  C   UNL     1       6.568   1.180  -1.356  1.00  0.00    +0.000 C 
ATOM     11  C   UNL     1       6.330  -0.029  -0.833  1.00  0.00    +0.000 C 
ENDBRANCH   9  11
ENDBRANCH   8   9
ENDBRANCH   7   8
ENDBRANCH   6   7
ENDBRANCH   5   6
ENDBRANCH   4   5
ENDBRANCH   2   4
ENDBRANCH   1   3
BRANCH   1  12
ATOM     12  C   UNL     1      -2.716   0.861   0.117  1.00  0.00    +0.000 C 
BRANCH  12  13
ATOM     13  C   UNL     1      -3.693   2.002  -0.232  1.00  0.00    +0.000 C 
BRANCH  13  14
ATOM     14  N   UNL     1      -5.059   1.735   0.192  1.00  0.00    +0.000 N 
ATOM     15  C   UNL     1      -5.994   1.200  -0.665  1.00  0.00    +0.000 C 
ATOM     16  C   UNL     1      -7.305   0.861  -0.007  1.00  0.00    +0.000 C 
ATOM     17  O   UNL     1      -5.791   0.990  -1.857  1.00  0.00    +0.000 OA
ATOM     18  H   UNL     1      -5.227   1.631   1.186  1.00  0.00    +0.000 HD
ENDBRANCH  13  14
ENDBRANCH  12  13
BRANCH  12  19
ATOM     19  O   UNL     1      -3.003  -0.294  -0.700  1.00  0.00    +0.000 OA
BRANCH  19  20
ATOM     20  C   UNL     1      -3.852  -1.214  -0.171  1.00  0.00    +0.000 C 
ATOM     21  C   UNL     1      -4.076  -2.325  -1.151  1.00  0.00    +0.000 C 
ATOM     22  O   UNL     1      -4.368  -1.157   0.938  1.00  0.00    +0.000 OA
ENDBRANCH  19  20
ENDBRANCH  12  19
ENDBRANCH   1  12
TORSDOF 13
