REMARK  Name = SANCDB00822.pdb
REMARK  3 active torsions:
REMARK  status: ('A' for Active; 'I' for Inactive)
REMARK    1  A    between atoms: C_1  and  C_2
REMARK    2  A    between atoms: C_20  and  C_21
REMARK    3  A    between atoms: C_20  and  C_22
REMARK                            x       y       z     vdW  Elec       q    Type
REMARK                         _______ _______ _______ _____ _____    ______ ____
ROOT
ATOM      1  C   UNL     1       5.475  -0.572  -1.022  1.00  0.00    +0.000 C 
ATOM      2  C   UNL     1       4.750   0.147   0.110  1.00  0.00    +0.000 C 
ATOM      3  C   UNL     1       4.547   1.643  -0.189  1.00  0.00    +0.000 C 
ATOM      4  O   UNL     1       3.167   1.860  -0.582  1.00  0.00    +0.000 OA
ATOM      5  C   UNL     1       2.532   0.702  -0.156  1.00  0.00    +0.000 C 
ATOM      6  C   UNL     1       3.341  -0.270   0.233  1.00  0.00    +0.000 C 
ATOM      7  C   UNL     1       2.820  -1.532   0.737  1.00  0.00    +0.000 C 
ATOM      8  O   UNL     1       3.548  -2.361   1.260  1.00  0.00    +0.000 OA
ATOM      9  C   UNL     1       1.319  -1.762   0.567  1.00  0.00    +0.000 C 
ATOM     10  O   UNL     1       0.896  -2.907   0.642  1.00  0.00    +0.000 OA
ATOM     11  C   UNL     1       0.438  -0.582   0.263  1.00  0.00    +0.000 A 
ATOM     12  C   UNL     1       1.076   0.613  -0.133  1.00  0.00    +0.000 A 
ATOM     13  C   UNL     1       0.300   1.714  -0.491  1.00  0.00    +0.000 A 
ATOM     14  C   UNL     1      -1.090   1.636  -0.469  1.00  0.00    +0.000 A 
ATOM     15  C   UNL     1      -1.758   0.460  -0.079  1.00  0.00    +0.000 A 
ATOM     16  C   UNL     1      -0.983  -0.656   0.332  1.00  0.00    +0.000 A 
ATOM     17  C   UNL     1      -1.662  -1.921   0.818  1.00  0.00    +0.000 C 
ATOM     18  C   UNL     1      -3.129  -1.752   1.189  1.00  0.00    +0.000 C 
ATOM     19  C   UNL     1      -3.851  -0.995   0.091  1.00  0.00    +0.000 C 
ATOM     20  C   UNL     1      -3.296   0.439  -0.076  1.00  0.00    +0.000 C 
ATOM     21  C   UNL     1      -3.805   1.334   1.076  1.00  0.00    +0.000 C 
ATOM     22  C   UNL     1      -3.875   0.981  -1.405  1.00  0.00    +0.000 C 
ENDROOT
TORSDOF 0
