REMARK  Name = SANCDB_00830_minRM1.pdb
AUTHORGENERATED BY OPEN BABEL 2.3.2
REMARK  9 active torsions:
REMARK  status: ('A' for Active; 'I' for Inactive)
REMARK    1  A    between atoms: C_1  and  C_2
REMARK    2  A    between atoms: C_3  and  C_19
REMARK    3  A    between atoms: C_10  and  O_18
REMARK    4  A    between atoms: C_12  and  O_16
REMARK    5  A    between atoms: C_13  and  O_14
REMARK    6  A    between atoms: O_14  and  C_15
REMARK    7  A    between atoms: O_16  and  C_17
REMARK    8  A    between atoms: C_19  and  C_20
REMARK    9  A    between atoms: C_20  and  C_22
REMARK                            x       y       z     vdW  Elec       q    Type
REMARK                         _______ _______ _______ _____ _____    ______ ____
ROOT
ATOM      1  C   UNL     1      -2.982  -2.638  -0.366  1.00  0.00    +0.000 C 
ATOM      2  C   UNL     1      -1.867  -1.629  -0.364  1.00  0.00    +0.000 C 
ATOM      3  C   UNL     1      -2.009  -0.304  -0.181  1.00  0.00    +0.000 C 
ATOM      4  C   UNL     1      -0.823   0.605  -0.133  1.00  0.00    +0.000 C 
ATOM      5  O   UNL     1      -1.007   1.796   0.092  1.00  0.00    +0.000 OA
ATOM      6  C   UNL     1       0.530   0.032  -0.337  1.00  0.00    +0.000 A 
ATOM      7  C   UNL     1       0.666  -1.342  -0.530  1.00  0.00    +0.000 A 
ATOM      8  C   UNL     1      -0.516  -2.218  -0.554  1.00  0.00    +0.000 C 
ATOM      9  O   UNL     1      -0.369  -3.423  -0.744  1.00  0.00    +0.000 OA
ATOM     10  C   UNL     1       1.944  -1.894  -0.715  1.00  0.00    +0.000 A 
ATOM     11  C   UNL     1       3.084  -1.093  -0.723  1.00  0.00    +0.000 A 
ATOM     12  C   UNL     1       2.966   0.283  -0.548  1.00  0.00    +0.000 A 
ATOM     13  C   UNL     1       1.687   0.839  -0.336  1.00  0.00    +0.000 A 
ENDROOT
BRANCH  13  14
ATOM     14  O   UNL     1       1.584   2.206  -0.226  1.00  0.00    +0.000 OA
ATOM     15  C   UNL     1       1.817   2.623   1.120  1.00  0.00    +0.000 C 
ENDBRANCH  13  14
BRANCH  12  16
ATOM     16  O   UNL     1       4.017   1.162  -0.565  1.00  0.00    +0.000 OA
ATOM     17  C   UNL     1       5.302   0.645  -0.885  1.00  0.00    +0.000 C 
ENDBRANCH  12  16
BRANCH  10  18
ATOM     18  O   UNL     1       2.166  -3.234  -0.906  1.00  0.00    +0.000 OA
ATOM     19  H   UNL     1       1.298  -3.701  -0.894  1.00  0.00    +0.000 HD
ENDBRANCH  10  18
BRANCH   3  20
ATOM     20  C   UNL     1      -3.324   0.414   0.012  1.00  0.00    +0.000 C 
BRANCH  20  21
ATOM     21  C   UNL     1      -3.514   0.750   1.482  1.00  0.00    +0.000 C 
ATOM     22  O   UNL     1      -3.279  -0.069   2.373  1.00  0.00    +0.000 OA
ATOM     23  C   UNL     1      -4.063   2.116   1.801  1.00  0.00    +0.000 C 
ENDBRANCH  20  21
ENDBRANCH   3  20
TORSDOF 5
