REMARK  Name = SANCDB_01033_minRM1.pdb
AUTHORGENERATED BY OPEN BABEL 2.3.2
REMARK  15 active torsions:
REMARK  status: ('A' for Active; 'I' for Inactive)
REMARK    1  A    between atoms: C_1  and  O_2
REMARK    2  A    between atoms: O_2  and  C_3
REMARK    3  A    between atoms: C_7  and  O_9
REMARK    4  A    between atoms: O_9  and  C_10
REMARK    5  A    between atoms: C_11  and  O_29
REMARK    6  A    between atoms: C_12  and  O_28
REMARK    7  A    between atoms: C_13  and  O_27
REMARK    8  A    between atoms: C_14  and  C_16
REMARK    9  A    between atoms: C_16  and  O_17
REMARK   10  A    between atoms: O_17  and  C_18
REMARK   11  A    between atoms: C_19  and  O_26
REMARK   12  A    between atoms: C_20  and  O_25
REMARK   13  A    between atoms: C_21  and  O_24
REMARK   14  A    between atoms: C_33  and  C_35
REMARK   15  A    between atoms: C_38  and  O_41
REMARK                            x       y       z     vdW  Elec       q    Type
REMARK                         _______ _______ _______ _____ _____    ______ ____
ROOT
ATOM      1  C   UNL     1      -0.468   0.570   2.556  1.00  0.00    +0.000 C 
ATOM      2  C   UNL     1      -0.035   2.052   2.549  1.00  0.00    +0.000 C 
ATOM      3  C   UNL     1      -0.943   2.920   1.658  1.00  0.00    +0.000 C 
ATOM      4  C   UNL     1      -1.853   2.088   0.746  1.00  0.00    +0.000 C 
ATOM      5  C   UNL     1      -2.626   1.047   1.584  1.00  0.00    +0.000 C 
ATOM      6  O   UNL     1      -1.893   0.458   2.664  1.00  0.00    +0.000 OA
ENDROOT
BRANCH   4   7
ATOM      7  O   UNL     1      -2.772   2.947   0.054  1.00  0.00    +0.000 OA
ATOM      8  H   UNL     1      -3.356   2.357  -0.465  1.00  0.00    +0.000 HD
ENDBRANCH   4   7
BRANCH   3   9
ATOM      9  O   UNL     1      -0.101   3.805   0.895  1.00  0.00    +0.000 OA
ATOM     10  H   UNL     1       0.333   3.250   0.210  1.00  0.00    +0.000 HD
ENDBRANCH   3   9
BRANCH   2  11
ATOM     11  O   UNL     1      -0.038   2.592   3.885  1.00  0.00    +0.000 OA
ATOM     12  H   UNL     1       0.175   3.540   3.793  1.00  0.00    +0.000 HD
ENDBRANCH   2  11
BRANCH   1  13
ATOM     13  O   UNL     1      -0.022  -0.099   1.363  1.00  0.00    +0.000 OA
BRANCH  13  18
ATOM     14  C   UNL     1       2.508  -2.544   2.397  1.00  0.00    +0.000 A 
ATOM     15  C   UNL     1       3.604  -2.119   1.649  1.00  0.00    +0.000 A 
ATOM     16  C   UNL     1       3.489  -1.005   0.809  1.00  0.00    +0.000 A 
ATOM     17  C   UNL     1       2.290  -0.295   0.721  1.00  0.00    +0.000 A 
ATOM     18  C   UNL     1       1.195  -0.710   1.488  1.00  0.00    +0.000 A 
ATOM     19  C   UNL     1       1.303  -1.844   2.302  1.00  0.00    +0.000 A 
ATOM     20  C   UNL     1       2.251   0.881  -0.177  1.00  0.00    +0.000 A 
ATOM     21  O   UNL     1       1.289   1.633  -0.279  1.00  0.00    +0.000 OA
ATOM     22  C   UNL     1       3.468   1.158  -0.958  1.00  0.00    +0.000 A 
ATOM     23  C   UNL     1       4.553   0.394  -0.781  1.00  0.00    +0.000 A 
ATOM     24  O   UNL     1       4.613  -0.679   0.090  1.00  0.00    +0.000 OA
BRANCH  23  25
ATOM     25  C   UNL     1       5.800   0.631  -1.535  1.00  0.00    +0.000 A 
ATOM     26  C   UNL     1       6.506  -0.454  -2.080  1.00  0.00    +0.000 A 
ATOM     27  C   UNL     1       7.693  -0.254  -2.790  1.00  0.00    +0.000 A 
ATOM     28  C   UNL     1       8.182   1.037  -2.951  1.00  0.00    +0.000 A 
ATOM     29  C   UNL     1       7.507   2.125  -2.414  1.00  0.00    +0.000 A 
ATOM     30  C   UNL     1       6.320   1.923  -1.705  1.00  0.00    +0.000 A 
BRANCH  28  31
ATOM     31  O   UNL     1       9.335   1.281  -3.635  1.00  0.00    +0.000 OA
ATOM     32  H   UNL     1       9.695   0.437  -3.954  1.00  0.00    +0.000 HD
ENDBRANCH  28  31
ENDBRANCH  23  25
BRANCH  14  34
ATOM     33  C   UNL     1       3.685  -4.356   3.395  1.00  0.00    +0.000 C 
ATOM     34  O   UNL     1       2.478  -3.620   3.239  1.00  0.00    +0.000 OA
ENDBRANCH  14  34
ENDBRANCH  13  18
ENDBRANCH   1  13
BRANCH   5  35
ATOM     35  C   UNL     1      -3.204  -0.067   0.693  1.00  0.00    +0.000 C 
BRANCH  35  36
ATOM     36  O   UNL     1      -4.018   0.510  -0.333  1.00  0.00    +0.000 OA
BRANCH  36  37
ATOM     37  C   UNL     1      -4.500  -0.460  -1.269  1.00  0.00    +0.000 C 
ATOM     38  C   UNL     1      -5.638  -1.322  -0.663  1.00  0.00    +0.000 C 
ATOM     39  C   UNL     1      -6.669  -1.632  -1.742  1.00  0.00    +0.000 C 
ATOM     40  C   UNL     1      -7.263  -0.335  -2.309  1.00  0.00    +0.000 C 
ATOM     41  C   UNL     1      -6.227   0.794  -2.324  1.00  0.00    +0.000 C 
ATOM     42  O   UNL     1      -4.918   0.236  -2.459  1.00  0.00    +0.000 OA
BRANCH  40  43
ATOM     43  O   UNL     1      -7.734  -0.617  -3.636  1.00  0.00    +0.000 OA
ATOM     44  H   UNL     1      -6.954  -0.642  -4.222  1.00  0.00    +0.000 HD
ENDBRANCH  40  43
BRANCH  39  45
ATOM     45  O   UNL     1      -7.707  -2.457  -1.190  1.00  0.00    +0.000 OA
ATOM     46  H   UNL     1      -8.383  -2.540  -1.892  1.00  0.00    +0.000 HD
ENDBRANCH  39  45
BRANCH  38  47
ATOM     47  O   UNL     1      -5.125  -2.552  -0.126  1.00  0.00    +0.000 OA
ATOM     48  H   UNL     1      -5.917  -3.109   0.025  1.00  0.00    +0.000 HD
ENDBRANCH  38  47
ENDBRANCH  36  37
ENDBRANCH  35  36
ENDBRANCH   5  35
TORSDOF 14
