REMARK  Name = /srv/my_project/app/compsite/backup/Dave/CORINA_stuff/newPDBs/SANC00404.pdb
AUTHORGENERATED BY OPEN BABEL 2.3.2
REMARK  34 active torsions:
REMARK  status: ('A' for Active; 'I' for Inactive)
REMARK    1  A    between atoms: C_11  and  C_12
REMARK    2  A    between atoms: C_16  and  O_18
REMARK    3  A    between atoms: O_18  and  C_19
REMARK    4  A    between atoms: C_22  and  C_24
REMARK    5  A    between atoms: C_24  and  O_25
REMARK    6  A    between atoms: C_26  and  O_28
REMARK    7  A    between atoms: C_29  and  O_31
REMARK    8  A    between atoms: C_32  and  O_34
REMARK    9  A    between atoms: C_35  and  C_37
REMARK   10  A    between atoms: C_37  and  C_39
REMARK   11  A    between atoms: C_37  and  C_40
REMARK   12  A    between atoms: C_40  and  O_42
REMARK   13  A    between atoms: C_40  and  C_43
REMARK   14  A    between atoms: C_43  and  C_44
REMARK   15  A    between atoms: C_44  and  C_45
REMARK   16  A    between atoms: C_45  and  C_46
REMARK   17  A    between atoms: C_45  and  C_47
REMARK   18  A    between atoms: C_48  and  C_49
REMARK   19  A    between atoms: C_50  and  O_52
REMARK   20  A    between atoms: O_52  and  C_53
REMARK   21  A    between atoms: C_56  and  C_58
REMARK   22  A    between atoms: C_58  and  O_59
REMARK   23  A    between atoms: O_59  and  C_60
REMARK   24  A    between atoms: C_60  and  C_62
REMARK   25  A    between atoms: C_64  and  O_65
REMARK   26  A    between atoms: O_65  and  C_66
REMARK   27  A    between atoms: C_67  and  O_68
REMARK   28  A    between atoms: O_68  and  C_69
REMARK   29  A    between atoms: C_70  and  O_71
REMARK   30  A    between atoms: O_71  and  C_72
REMARK   31  A    between atoms: C_74  and  O_76
REMARK   32  A    between atoms: C_77  and  O_79
REMARK   33  A    between atoms: C_80  and  O_82
REMARK   34  A    between atoms: C_84  and  O_86
REMARK                            x       y       z     vdW  Elec       q    Type
REMARK                         _______ _______ _______ _____ _____    ______ ____
ROOT
ATOM      1  C   UNL     1       1.554   4.267   0.618  1.00  0.00    +0.000 C 
ATOM      2  C   UNL     1       0.481   4.278   1.714  1.00  0.00    +0.000 C 
ATOM      3  C   UNL     1      -0.855   3.763   1.191  1.00  0.00    +0.000 C 
ATOM      4  C   UNL     1      -0.733   2.373   0.551  1.00  0.00    +0.000 C 
ATOM      5  C   UNL     1       0.358   2.365  -0.562  1.00  0.00    +0.000 C 
ATOM      6  C   UNL     1       0.398   1.003  -1.298  1.00  0.00    +0.000 C 
ATOM      7  C   UNL     1      -0.981   0.521  -1.784  1.00  0.00    +0.000 C 
ATOM      8  C   UNL     1      -2.026   0.484  -0.651  1.00  0.00    +0.000 C 
ATOM      9  C   UNL     1      -1.651  -0.612   0.372  1.00  0.00    +0.000 C 
ATOM     10  C   UNL     1      -2.065   1.918  -0.063  1.00  0.00    +0.000 C 
ATOM     11  C   UNL     1      -3.290   1.913   0.833  1.00  0.00    +0.000 C 
ATOM     12  C   UNL     1      -4.313   1.027   0.089  1.00  0.00    +0.000 C 
ATOM     13  C   UNL     1      -3.527   0.343  -1.087  1.00  0.00    +0.000 C 
ATOM     14  C   UNL     1       1.763   2.861  -0.035  1.00  0.00    +0.000 C 
ATOM     15  C   UNL     1       2.314   1.858   1.022  1.00  0.00    +0.000 C 
ATOM     16  C   UNL     1       2.771   3.013  -1.251  1.00  0.00    +0.000 C 
ATOM     17  C   UNL     1       3.531   4.360  -1.260  1.00  0.00    +0.000 C 
ATOM     18  C   UNL     1       4.013   4.789   0.121  1.00  0.00    +0.000 C 
ATOM     19  C   UNL     1       2.873   4.866   1.143  1.00  0.00    +0.000 C 
ENDROOT
BRANCH  18  20
ATOM     20  O   UNL     1       5.029   3.885   0.558  1.00  0.00    +0.000 OA
ATOM     21  H   UNL     1       5.356   4.209   1.416  1.00  0.00    +0.000 HD
ENDBRANCH  18  20
BRANCH  13  22
ATOM     22  C   UNL     1      -4.067  -1.060  -1.533  1.00  0.00    +0.000 C 
ATOM     23  C   UNL     1      -3.311  -1.558  -2.774  1.00  0.00    +0.000 C 
BRANCH  22  24
ATOM     24  C   UNL     1      -5.603  -1.028  -1.787  1.00  0.00    +0.000 C 
BRANCH  24  25
ATOM     25  O   UNL     1      -5.907   0.083  -2.642  1.00  0.00    +0.000 OA
ATOM     26  H   UNL     1      -6.824   0.340  -2.442  1.00  0.00    +0.000 HD
ENDBRANCH  24  25
BRANCH  24  27
ATOM     27  C   UNL     1      -6.245  -2.270  -2.423  1.00  0.00    +0.000 C 
BRANCH  27  28
ATOM     28  C   UNL     1      -5.999  -3.632  -1.761  1.00  0.00    +0.000 C 
BRANCH  28  29
ATOM     29  C   UNL     1      -6.643  -3.917  -0.390  1.00  0.00    +0.000 C 
ATOM     30  C   UNL     1      -8.071  -3.392  -0.262  1.00  0.00    +0.000 C 
ATOM     31  C   UNL     1      -5.780  -3.449   0.778  1.00  0.00    +0.000 C 
ENDBRANCH  28  29
ENDBRANCH  27  28
ENDBRANCH  24  27
ENDBRANCH  22  24
ENDBRANCH  13  22
BRANCH  16  32
ATOM     32  O   UNL     1       3.705   1.934  -1.208  1.00  0.00    +0.000 OA
BRANCH  32  33
ATOM     33  C   UNL     1       4.348   1.624  -2.447  1.00  0.00    +0.000 C 
ATOM     34  O   UNL     1       3.562   0.661  -3.134  1.00  0.00    +0.000 OA
ATOM     35  C   UNL     1       4.235  -0.113  -4.139  1.00  0.00    +0.000 C 
ATOM     36  C   UNL     1       5.671   0.333  -4.485  1.00  0.00    +0.000 C 
ATOM     37  C   UNL     1       6.538   0.709  -3.277  1.00  0.00    +0.000 C 
ATOM     38  C   UNL     1       5.720   1.077  -2.043  1.00  0.00    +0.000 C 
BRANCH  38  39
ATOM     39  O   UNL     1       6.472   2.023  -1.257  1.00  0.00    +0.000 OA
ATOM     40  H   UNL     1       5.827   2.433  -0.634  1.00  0.00    +0.000 HD
ENDBRANCH  38  39
BRANCH  37  41
ATOM     41  O   UNL     1       7.449  -0.353  -2.958  1.00  0.00    +0.000 OA
ATOM     42  H   UNL     1       7.941  -0.049  -2.170  1.00  0.00    +0.000 HD
ENDBRANCH  37  41
BRANCH  36  43
ATOM     43  O   UNL     1       5.558   1.504  -5.322  1.00  0.00    +0.000 OA
ATOM     44  H   UNL     1       6.434   1.653  -5.722  1.00  0.00    +0.000 HD
ENDBRANCH  36  43
BRANCH  35  45
ATOM     45  C   UNL     1       4.143  -1.604  -3.770  1.00  0.00    +0.000 C 
BRANCH  45  46
ATOM     46  O   UNL     1       4.793  -1.855  -2.517  1.00  0.00    +0.000 OA
BRANCH  46  47
ATOM     47  C   UNL     1       5.422  -3.047  -2.389  1.00  0.00    +0.000 C 
ATOM     48  O   UNL     1       5.500  -3.921  -3.235  1.00  0.00    +0.000 OA
BRANCH  47  49
ATOM     49  C   UNL     1       6.059  -3.133  -1.049  1.00  0.00    +0.000 A 
ATOM     50  C   UNL     1       5.632  -2.331   0.021  1.00  0.00    +0.000 A 
ATOM     51  C   UNL     1       6.277  -2.403   1.255  1.00  0.00    +0.000 A 
ATOM     52  C   UNL     1       7.342  -3.308   1.410  1.00  0.00    +0.000 A 
ATOM     53  C   UNL     1       7.750  -4.151   0.359  1.00  0.00    +0.000 A 
ATOM     54  C   UNL     1       7.106  -4.048  -0.875  1.00  0.00    +0.000 A 
BRANCH  53  55
ATOM     55  O   UNL     1       8.786  -5.007   0.632  1.00  0.00    +0.000 OA
ATOM     56  C   UNL     1       9.101  -5.984  -0.351  1.00  0.00    +0.000 C 
ENDBRANCH  53  55
BRANCH  52  57
ATOM     57  O   UNL     1       7.954  -3.422   2.640  1.00  0.00    +0.000 OA
ATOM     58  C   UNL     1       9.058  -2.522   2.714  1.00  0.00    +0.000 C 
ENDBRANCH  52  57
BRANCH  51  59
ATOM     59  O   UNL     1       5.949  -1.649   2.352  1.00  0.00    +0.000 OA
ATOM     60  C   UNL     1       4.955  -0.645   2.185  1.00  0.00    +0.000 C 
ENDBRANCH  51  59
ENDBRANCH  47  49
ENDBRANCH  46  47
ENDBRANCH  45  46
ENDBRANCH  35  45
ENDBRANCH  32  33
ENDBRANCH  16  32
BRANCH  12  61
ATOM     61  O   UNL     1      -4.871   0.080   0.997  1.00  0.00    +0.000 OA
BRANCH  61  62
ATOM     62  C   UNL     1      -5.740   0.665   1.976  1.00  0.00    +0.000 C 
ATOM     63  O   UNL     1      -5.327   0.161   3.251  1.00  0.00    +0.000 OA
ATOM     64  C   UNL     1      -6.119   0.638   4.337  1.00  0.00    +0.000 C 
ATOM     65  C   UNL     1      -7.590   0.223   4.167  1.00  0.00    +0.000 C 
ATOM     66  C   UNL     1      -8.104   0.733   2.822  1.00  0.00    +0.000 C 
ATOM     67  C   UNL     1      -7.204   0.281   1.674  1.00  0.00    +0.000 C 
BRANCH  67  68
ATOM     68  O   UNL     1      -7.684   0.887   0.460  1.00  0.00    +0.000 OA
ATOM     69  H   UNL     1      -8.649   0.716   0.467  1.00  0.00    +0.000 HD
ENDBRANCH  67  68
BRANCH  66  70
ATOM     70  O   UNL     1      -9.441   0.257   2.587  1.00  0.00    +0.000 OA
ATOM     71  H   UNL     1      -9.911   0.404   3.434  1.00  0.00    +0.000 HD
ENDBRANCH  66  70
BRANCH  65  72
ATOM     72  O   UNL     1      -8.437   0.762   5.188  1.00  0.00    +0.000 OA
ATOM     73  H   UNL     1      -7.981   0.599   6.044  1.00  0.00    +0.000 HD
ENDBRANCH  65  72
BRANCH  64  74
ATOM     74  C   UNL     1      -5.534   0.070   5.636  1.00  0.00    +0.000 C 
BRANCH  74  75
ATOM     75  O   UNL     1      -6.246   0.563   6.771  1.00  0.00    +0.000 OA
ATOM     76  H   UNL     1      -5.709   1.284   7.149  1.00  0.00    +0.000 HD
ENDBRANCH  74  75
ENDBRANCH  64  74
ENDBRANCH  61  62
ENDBRANCH  12  61
TORSDOF 26
