REMARK  Name = /srv/my_project/app/compsite/backup/Dave/CORINA_stuff/newPDBs/SANC00439.pdb
AUTHORGENERATED BY OPEN BABEL 2.3.2
REMARK  3 active torsions:
REMARK  status: ('A' for Active; 'I' for Inactive)
REMARK    1  A    between atoms: C_1  and  C_2
REMARK    2  A    between atoms: C_4  and  O_5
REMARK    3  A    between atoms: C_11  and  O_13
REMARK                            x       y       z     vdW  Elec       q    Type
REMARK                         _______ _______ _______ _____ _____    ______ ____
ROOT
ATOM      1  C   UNL     1       3.511  -1.404   0.395  1.00  0.00    +0.000 C 
ATOM      2  C   UNL     1       2.254  -0.594   0.274  1.00  0.00    +0.000 A 
ATOM      3  C   UNL     1       2.284   0.789   0.478  1.00  0.00    +0.000 A 
ATOM      4  C   UNL     1       1.113   1.539   0.380  1.00  0.00    +0.000 A 
ATOM      5  C   UNL     1      -0.111   0.918   0.096  1.00  0.00    +0.000 A 
ATOM      6  C   UNL     1      -1.352   1.729  -0.023  1.00  0.00    +0.000 C 
ATOM      7  O   UNL     1      -1.295   2.951   0.115  1.00  0.00    +0.000 OA
ATOM      8  C   UNL     1      -2.648   1.028  -0.355  1.00  0.00    +0.000 C 
ATOM      9  C   UNL     1      -2.657  -0.405   0.158  1.00  0.00    +0.000 C 
ATOM     10  C   UNL     1      -1.458  -1.181  -0.378  1.00  0.00    +0.000 C 
ATOM     11  C   UNL     1      -0.164  -0.475  -0.077  1.00  0.00    +0.000 A 
ATOM     12  C   UNL     1       1.028  -1.218   0.006  1.00  0.00    +0.000 A 
ENDROOT
BRANCH   4  13
ATOM     13  O   UNL     1       1.242   2.889   0.577  1.00  0.00    +0.000 OA
ATOM     14  H   UNL     1       0.356   3.296   0.447  1.00  0.00    +0.000 HD
ENDBRANCH   4  13
BRANCH  10  15
ATOM     15  O   UNL     1      -1.559  -1.317  -1.789  1.00  0.00    +0.000 OA
ATOM     16  H   UNL     1      -2.328  -1.881  -1.975  1.00  0.00    +0.000 HD
ENDBRANCH  10  15
TORSDOF 2
