REMARK  Name = /srv/my_project/app/compsite/backup/Dave/CORINA_stuff/newPDBs/SANC00357.pdb
AUTHORGENERATED BY OPEN BABEL 2.3.2
REMARK  5 active torsions:
REMARK  status: ('A' for Active; 'I' for Inactive)
REMARK    1  A    between atoms: C_4  and  O_5
REMARK    2  A    between atoms: C_7  and  O_8
REMARK    3  A    between atoms: C_13  and  C_15
REMARK    4  A    between atoms: C_15  and  C_16
REMARK    5  A    between atoms: C_19  and  O_20
REMARK                            x       y       z     vdW  Elec       q    Type
REMARK                         _______ _______ _______ _____ _____    ______ ____
ROOT
ATOM      1  O   UNL     1       0.406  -0.024   1.804  1.00  0.00    +0.000 OA
ATOM      2  C   UNL     1       0.777  -0.292   0.664  1.00  0.00    +0.000 C 
ATOM      3  C   UNL     1       2.197  -0.101   0.311  1.00  0.00    +0.000 A 
ATOM      4  C   UNL     1       3.097   0.513   1.192  1.00  0.00    +0.000 A 
ATOM      5  C   UNL     1       4.420   0.723   0.813  1.00  0.00    +0.000 A 
ATOM      6  C   UNL     1       4.836   0.319  -0.453  1.00  0.00    +0.000 A 
ATOM      7  C   UNL     1       3.954  -0.298  -1.335  1.00  0.00    +0.000 A 
ATOM      8  C   UNL     1       2.634  -0.524  -0.946  1.00  0.00    +0.000 A 
ATOM      9  O   UNL     1       1.825  -1.146  -1.860  1.00  0.00    +0.000 OA
ATOM     10  C   UNL     1       0.680  -1.767  -1.264  1.00  0.00    +0.000 C 
ATOM     11  C   UNL     1      -0.134  -0.767  -0.452  1.00  0.00    +0.000 C 
ENDROOT
BRANCH   4  12
ATOM     12  O   UNL     1       2.741   0.940   2.443  1.00  0.00    +0.000 OA
ATOM     13  H   UNL     1       1.791   0.723   2.580  1.00  0.00    +0.000 HD
ENDBRANCH   4  12
BRANCH   6  14
ATOM     14  O   UNL     1       6.120   0.511  -0.871  1.00  0.00    +0.000 OA
ATOM     15  H   UNL     1       6.617   0.957  -0.164  1.00  0.00    +0.000 HD
ENDBRANCH   6  14
BRANCH  11  16
ATOM     16  C   UNL     1      -1.417  -1.419   0.081  1.00  0.00    +0.000 C 
BRANCH  16  17
ATOM     17  C   UNL     1      -2.549  -0.428   0.232  1.00  0.00    +0.000 A 
ATOM     18  C   UNL     1      -3.343  -0.086  -0.874  1.00  0.00    +0.000 A 
ATOM     19  C   UNL     1      -4.383   0.839  -0.743  1.00  0.00    +0.000 A 
ATOM     20  C   UNL     1      -4.626   1.424   0.495  1.00  0.00    +0.000 A 
ATOM     21  C   UNL     1      -3.849   1.100   1.599  1.00  0.00    +0.000 A 
ATOM     22  C   UNL     1      -2.811   0.176   1.468  1.00  0.00    +0.000 A 
BRANCH  20  23
ATOM     23  O   UNL     1      -5.630   2.331   0.667  1.00  0.00    +0.000 OA
ATOM     24  H   UNL     1      -6.081   2.458  -0.183  1.00  0.00    +0.000 HD
ENDBRANCH  20  23
ENDBRANCH  16  17
ENDBRANCH  11  16
TORSDOF 5
