REMARK  Name = SANCDB_00813_minRM1.pdb
AUTHORGENERATED BY OPEN BABEL 2.3.2
REMARK  17 active torsions:
REMARK  status: ('A' for Active; 'I' for Inactive)
REMARK    1  A    between atoms: C_1  and  O_2
REMARK    2  A    between atoms: O_2  and  C_3
REMARK    3  A    between atoms: C_3  and  C_5
REMARK    4  A    between atoms: C_5  and  C_6
REMARK    5  A    between atoms: C_7  and  C_8
REMARK    6  A    between atoms: C_7  and  C_17
REMARK    7  A    between atoms: C_9  and  O_10
REMARK    8  A    between atoms: C_14  and  C_15
REMARK    9  A    between atoms: C_14  and  C_16
REMARK   10  A    between atoms: C_18  and  O_19
REMARK   11  A    between atoms: O_19  and  C_20
REMARK   12  A    between atoms: C_20  and  C_22
REMARK   13  A    between atoms: C_23  and  O_24
REMARK   14  A    between atoms: O_24  and  C_25
REMARK   15  A    between atoms: C_25  and  C_27
REMARK   16  A    between atoms: C_28  and  C_40
REMARK   17  A    between atoms: C_32  and  C_33
REMARK                            x       y       z     vdW  Elec       q    Type
REMARK                         _______ _______ _______ _____ _____    ______ ____
ROOT
ATOM      1  C   UNL     1      -0.189  -0.082  -0.029  1.00  0.00    +0.000 C 
ATOM      2  C   UNL     1       0.886  -1.238  -0.222  1.00  0.00    +0.000 C 
ATOM      3  C   UNL     1       2.350  -0.849   0.205  1.00  0.00    +0.000 C 
ATOM      4  C   UNL     1       2.368   0.267   1.274  1.00  0.00    +0.000 C 
ATOM      5  C   UNL     1       1.611   1.466   0.726  1.00  0.00    +0.000 C 
ATOM      6  C   UNL     1       2.140   2.621   1.156  1.00  0.00    +0.000 C 
ATOM      7  C   UNL     1       3.381   2.385   1.964  1.00  0.00    +0.000 C 
ATOM      8  C   UNL     1       3.753   0.924   1.600  1.00  0.00    +0.000 C 
ATOM      9  C   UNL     1       0.548   1.254  -0.250  1.00  0.00    +0.000 C 
ATOM     10  C   UNL     1       0.383   2.135  -1.250  1.00  0.00    +0.000 C 
ATOM     11  C   UNL     1       1.783  -0.242   2.622  1.00  0.00    +0.000 C 
ENDROOT
BRANCH   1  13
ATOM     12  C   UNL     1      -2.822   0.441   0.149  1.00  0.00    +0.000 C 
ATOM     13  C   UNL     1      -1.671  -0.380  -0.635  1.00  0.00    +0.000 C 
ATOM     14  C   UNL     1      -1.721  -0.121  -2.159  1.00  0.00    +0.000 C 
ATOM     15  C   UNL     1      -2.021  -1.895  -0.369  1.00  0.00    +0.000 C 
ATOM     16  C   UNL     1      -3.456  -2.331  -0.646  1.00  0.00    +0.000 C 
ATOM     17  C   UNL     1      -4.335  -1.214  -1.125  1.00  0.00    +0.000 C 
ATOM     18  O   UNL     1      -5.124  -1.422  -2.051  1.00  0.00    +0.000 OA
ATOM     19  C   UNL     1      -4.288   0.123  -0.377  1.00  0.00    +0.000 C 
ATOM     20  C   UNL     1      -4.857   1.201  -1.327  1.00  0.00    +0.000 C 
ATOM     21  C   UNL     1      -5.279  -0.037   0.796  1.00  0.00    +0.000 C 
BRANCH  15  22
ATOM     22  O   UNL     1      -1.752  -2.199   1.007  1.00  0.00    +0.000 OA
ATOM     23  H   UNL     1      -1.717  -3.171   1.092  1.00  0.00    +0.000 HD
ENDBRANCH  15  22
BRANCH  12  24
ATOM     24  C   UNL     1      -2.540   1.954   0.317  1.00  0.00    +0.000 C 
BRANCH  24  25
ATOM     25  C   UNL     1      -3.398   2.635   1.362  1.00  0.00    +0.000 C 
ATOM     26  O   UNL     1      -3.625   2.182   2.475  1.00  0.00    +0.000 OA
BRANCH  25  28
ATOM     27  C   UNL     1      -4.651   4.555   1.831  1.00  0.00    +0.000 C 
ATOM     28  O   UNL     1      -3.842   3.836   0.898  1.00  0.00    +0.000 OA
ENDBRANCH  25  28
ENDBRANCH  24  25
ENDBRANCH  12  24
ENDBRANCH   1  13
BRANCH   8  29
ATOM     29  C   UNL     1       4.797   0.856   0.512  1.00  0.00    +0.000 A 
ATOM     30  C   UNL     1       4.833   1.528  -0.696  1.00  0.00    +0.000 A 
ATOM     31  O   UNL     1       5.944   1.204  -1.401  1.00  0.00    +0.000 OA
ATOM     32  C   UNL     1       6.639   0.311  -0.654  1.00  0.00    +0.000 A 
ATOM     33  C   UNL     1       5.987   0.069   0.531  1.00  0.00    +0.000 A 
ENDBRANCH   8  29
BRANCH   2  34
ATOM     34  O   UNL     1       0.933  -1.625  -1.619  1.00  0.00    +0.000 OA
BRANCH  34  35
ATOM     35  C   UNL     1       1.086  -2.948  -1.900  1.00  0.00    +0.000 C 
ATOM     36  O   UNL     1       1.048  -3.857  -1.081  1.00  0.00    +0.000 OA
ATOM     37  C   UNL     1       1.260  -3.141  -3.375  1.00  0.00    +0.000 C 
ENDBRANCH  34  35
ENDBRANCH   2  34
BRANCH   3  38
ATOM     38  O   UNL     1       3.029  -2.011   0.745  1.00  0.00    +0.000 OA
BRANCH  38  39
ATOM     39  C   UNL     1       3.786  -2.747  -0.113  1.00  0.00    +0.000 C 
ATOM     40  O   UNL     1       3.961  -2.514  -1.300  1.00  0.00    +0.000 OA
ATOM     41  C   UNL     1       4.389  -3.909   0.615  1.00  0.00    +0.000 C 
ENDBRANCH  38  39
ENDBRANCH   3  38
TORSDOF 10
