REMARK  Name = SANCDB_00807_minRM1.pdb
AUTHORGENERATED BY OPEN BABEL 2.3.2
REMARK  16 active torsions:
REMARK  status: ('A' for Active; 'I' for Inactive)
REMARK    1  A    between atoms: C_1  and  O_2
REMARK    2  A    between atoms: O_2  and  C_3
REMARK    3  A    between atoms: C_3  and  C_5
REMARK    4  A    between atoms: C_5  and  C_6
REMARK    5  A    between atoms: C_7  and  C_8
REMARK    6  A    between atoms: C_7  and  C_16
REMARK    7  A    between atoms: C_13  and  C_14
REMARK    8  A    between atoms: C_13  and  C_15
REMARK    9  A    between atoms: C_17  and  O_18
REMARK   10  A    between atoms: O_18  and  C_19
REMARK   11  A    between atoms: C_19  and  C_21
REMARK   12  A    between atoms: C_22  and  O_23
REMARK   13  A    between atoms: O_23  and  C_24
REMARK   14  A    between atoms: C_24  and  C_26
REMARK   15  A    between atoms: C_27  and  C_39
REMARK   16  A    between atoms: C_31  and  C_32
REMARK                            x       y       z     vdW  Elec       q    Type
REMARK                         _______ _______ _______ _____ _____    ______ ____
ROOT
ATOM      1  C   UNL     1       0.141  -0.338  -1.414  1.00  0.00    +0.000 C 
ATOM      2  C   UNL     1      -0.943  -1.195  -0.638  1.00  0.00    +0.000 C 
ATOM      3  C   UNL     1      -2.337  -0.499  -0.639  1.00  0.00    +0.000 C 
ATOM      4  C   UNL     1      -2.300   0.946  -0.047  1.00  0.00    +0.000 C 
ATOM      5  C   UNL     1      -0.884   1.501  -0.046  1.00  0.00    +0.000 C 
ATOM      6  C   UNL     1      -0.601   2.194   1.064  1.00  0.00    +0.000 C 
ATOM      7  C   UNL     1      -1.748   2.169   2.021  1.00  0.00    +0.000 C 
ATOM      8  C   UNL     1      -2.580   0.979   1.493  1.00  0.00    +0.000 C 
ATOM      9  C   UNL     1       0.023   1.164  -1.112  1.00  0.00    +0.000 C 
ATOM     10  C   UNL     1       0.621   2.134  -1.823  1.00  0.00    +0.000 C 
ATOM     11  C   UNL     1      -3.207   1.928  -0.822  1.00  0.00    +0.000 C 
ENDROOT
BRANCH   1  13
ATOM     12  C   UNL     1       2.689  -0.262  -0.456  1.00  0.00    +0.000 C 
ATOM     13  C   UNL     1       1.645  -0.942  -1.463  1.00  0.00    +0.000 C 
ATOM     14  C   UNL     1       1.606  -2.483  -1.327  1.00  0.00    +0.000 C 
ATOM     15  C   UNL     1       2.167  -0.717  -2.885  1.00  0.00    +0.000 C 
ATOM     16  C   UNL     1       3.455  -0.626  -3.226  1.00  0.00    +0.000 C 
ATOM     17  C   UNL     1       4.527  -0.768  -2.228  1.00  0.00    +0.000 C 
ATOM     18  O   UNL     1       5.664  -0.990  -2.648  1.00  0.00    +0.000 OA
ATOM     19  C   UNL     1       4.213  -0.623  -0.731  1.00  0.00    +0.000 C 
ATOM     20  C   UNL     1       5.136   0.535  -0.264  1.00  0.00    +0.000 C 
ATOM     21  C   UNL     1       4.697  -1.901  -0.019  1.00  0.00    +0.000 C 
BRANCH  12  22
ATOM     22  C   UNL     1       2.269  -0.437   1.022  1.00  0.00    +0.000 C 
BRANCH  22  23
ATOM     23  C   UNL     1       2.992   0.416   2.036  1.00  0.00    +0.000 C 
ATOM     24  O   UNL     1       3.572  -0.038   3.013  1.00  0.00    +0.000 OA
BRANCH  23  26
ATOM     25  C   UNL     1       3.497   2.608   2.682  1.00  0.00    +0.000 C 
ATOM     26  O   UNL     1       2.864   1.738   1.742  1.00  0.00    +0.000 OA
ENDBRANCH  23  26
ENDBRANCH  22  23
ENDBRANCH  12  22
ENDBRANCH   1  13
BRANCH   8  27
ATOM     27  C   UNL     1      -4.026   0.994   1.901  1.00  0.00    +0.000 A 
ATOM     28  C   UNL     1      -4.849  -0.110   2.033  1.00  0.00    +0.000 A 
ATOM     29  O   UNL     1      -6.094   0.251   2.431  1.00  0.00    +0.000 OA
ATOM     30  C   UNL     1      -6.093   1.601   2.549  1.00  0.00    +0.000 A 
ATOM     31  C   UNL     1      -4.854   2.107   2.236  1.00  0.00    +0.000 A 
ENDBRANCH   8  27
BRANCH   2  32
ATOM     32  O   UNL     1      -0.527  -1.498   0.706  1.00  0.00    +0.000 OA
BRANCH  32  33
ATOM     33  C   UNL     1      -1.065  -2.616   1.268  1.00  0.00    +0.000 C 
ATOM     34  O   UNL     1      -1.857  -3.368   0.722  1.00  0.00    +0.000 OA
ATOM     35  C   UNL     1      -0.535  -2.797   2.657  1.00  0.00    +0.000 C 
ENDBRANCH  32  33
ENDBRANCH   2  32
BRANCH   3  36
ATOM     36  O   UNL     1      -2.774  -0.490  -2.024  1.00  0.00    +0.000 OA
BRANCH  36  37
ATOM     37  C   UNL     1      -4.047  -0.904  -2.271  1.00  0.00    +0.000 C 
ATOM     38  O   UNL     1      -4.858  -1.258  -1.429  1.00  0.00    +0.000 OA
ATOM     39  C   UNL     1      -4.322  -0.850  -3.742  1.00  0.00    +0.000 C 
ENDBRANCH  36  37
ENDBRANCH   3  36
TORSDOF 9
