REMARK  Name = [H][C@@]27C[C@@]16C[C@H](Nc3c1c5=[N+]2CCc4c[nH]c(c3=O)c45)SC6=CC7=O
REMARK  0 active torsions:
REMARK  status: ('A' for Active; 'I' for Inactive)
REMARK                            x       y       z     vdW  Elec       q    Type
REMARK                         _______ _______ _______ _____ _____    ______ ____
ROOT
ATOM      1  O   UNL     1       0.001   3.601   1.168  1.00  0.00    +0.000 OA
ATOM      2  O   UNL     1       0.121  -3.963   0.918  1.00  0.00    +0.000 OA
ATOM      3  C   UNL     1      -1.724   2.015   1.442  1.00  0.00    +0.000 C 
ATOM      4  C   UNL     1       3.748  -1.604   0.441  1.00  0.00    +0.000 A 
ATOM      5  C   UNL     1       3.393   0.969  -0.094  1.00  0.00    +0.000 C 
ATOM      6  C   UNL     1       2.273   1.775  -0.826  1.00  0.00    +0.000 C 
ATOM      7  C   UNL     1      -3.128  -0.489  -0.811  1.00  0.00    +0.000 C 
ATOM      8  C   UNL     1      -1.494   1.430  -1.374  1.00  0.00    +0.000 C 
ATOM      9  N   UNL     1      -2.205  -2.313   0.467  1.00  0.00    +0.000 N 
ATOM     10  N   UNL     1       2.843  -2.647   0.605  1.00  0.00    +0.000 N 
ATOM     11  S   UNL     1      -3.332  -0.184   1.797  1.00  0.00    +0.000 S 
ATOM     12  C   UNL     1      -0.662   2.707   0.649  1.00  0.00    +0.000 C 
ATOM     13  C   UNL     1      -2.241   0.884   0.946  1.00  0.00    +0.000 C 
ATOM     14  C   UNL     1       3.047  -0.471   0.088  1.00  0.00    +0.000 A 
ATOM     15  C   UNL     1      -0.897  -1.883   0.235  1.00  0.00    +0.000 C 
ATOM     16  C   UNL     1      -0.692  -0.611  -0.184  1.00  0.00    +0.000 C 
ATOM     17  C   UNL     1       0.289  -2.812   0.542  1.00  0.00    +0.000 C 
ATOM     18  C   UNL     1       0.647   0.015  -0.300  1.00  0.00    +0.000 C 
ATOM     19  C   UNL     1       1.574  -2.174   0.380  1.00  0.00    +0.000 A 
ATOM     20  C   UNL     1       1.713  -0.868   0.002  1.00  0.00    +0.000 A 
ATOM     21  C   UNL     1      -3.353  -1.408   0.401  1.00  0.00    +0.000 C 
ATOM     22  N   UNL     1       0.855   1.253  -0.598  1.00  0.00    +0.000 N 
ATOM     23  C   UNL     1      -0.316   2.191  -0.753  1.00  0.00    +0.000 C 
ATOM     24  C   UNL     1      -1.876   0.310  -0.407  1.00  0.00    +0.000 C 
ATOM     25  H   UNL     1      -2.277  -3.109   1.106  1.00  0.00    +0.000 HD
ATOM     26  H   UNL     1       3.073  -3.589   0.908  1.00  0.00    +0.000 HD
ENDROOT
TORSDOF 0
