REMARK  Name = /srv/my_project/app/compsite/backup/Dave/CORINA_stuff/newPDBs/SANC00536.pdb
AUTHORGENERATED BY OPEN BABEL 2.3.2
REMARK  7 active torsions:
REMARK  status: ('A' for Active; 'I' for Inactive)
REMARK    1  A    between atoms: C_1  and  O_2
REMARK    2  A    between atoms: O_2  and  C_3
REMARK    3  A    between atoms: C_3  and  C_4
REMARK    4  A    between atoms: C_7  and  C_9
REMARK    5  A    between atoms: C_9  and  C_10
REMARK    6  A    between atoms: C_9  and  C_11
REMARK    7  A    between atoms: C_19  and  C_20
REMARK                            x       y       z     vdW  Elec       q    Type
REMARK                         _______ _______ _______ _____ _____    ______ ____
ROOT
ATOM      1  C   UNL     1       0.536   2.694  -0.220  1.00  0.00    +0.000 C 
ATOM      2  C   UNL     1       1.090   2.631   1.215  1.00  0.00    +0.000 C 
ATOM      3  C   UNL     1      -0.793   1.954  -0.250  1.00  0.00    +0.000 C 
ATOM      4  C   UNL     1      -1.020   0.644  -0.041  1.00  0.00    +0.000 C 
ATOM      5  C   UNL     1      -2.396   0.035   0.098  1.00  0.00    +0.000 C 
ATOM      6  C   UNL     1      -2.572  -0.680   1.468  1.00  0.00    +0.000 C 
ATOM      7  C   UNL     1      -2.079  -2.123   1.653  1.00  0.00    +0.000 C 
ATOM      8  C   UNL     1      -0.618  -2.372   1.816  1.00  0.00    +0.000 C 
ATOM      9  C   UNL     1       0.398  -1.617   2.236  1.00  0.00    +0.000 C 
ATOM     10  C   UNL     1       1.678  -2.367   2.205  1.00  0.00    +0.000 C 
ATOM     11  C   UNL     1       2.822  -1.768   1.355  1.00  0.00    +0.000 C 
ATOM     12  C   UNL     1       2.429  -1.215  -0.007  1.00  0.00    +0.000 C 
ATOM     13  C   UNL     1       1.989  -2.230  -1.030  1.00  0.00    +0.000 C 
ATOM     14  C   UNL     1       2.511   0.107  -0.262  1.00  0.00    +0.000 C 
ATOM     15  C   UNL     1       1.982   0.799  -1.488  1.00  0.00    +0.000 C 
ATOM     16  C   UNL     1       1.569   2.268  -1.303  1.00  0.00    +0.000 C 
ATOM     17  O   UNL     1       1.306  -3.656   1.709  1.00  0.00    +0.000 OA
ATOM     18  C   UNL     1      -0.038  -3.688   1.493  1.00  0.00    +0.000 C 
ATOM     19  O   UNL     1      -0.660  -4.653   1.088  1.00  0.00    +0.000 OA
ENDROOT
BRANCH   5  20
ATOM     20  C   UNL     1      -2.864  -0.786  -1.140  1.00  0.00    +0.000 C 
ATOM     21  C   UNL     1      -3.374   0.154  -2.245  1.00  0.00    +0.000 C 
ATOM     22  C   UNL     1      -1.805  -1.708  -1.753  1.00  0.00    +0.000 C 
ENDBRANCH   5  20
BRANCH   1  24
ATOM     23  C   UNL     1       1.136   5.068  -0.473  1.00  0.00    +0.000 C 
ATOM     24  O   UNL     1       0.132   4.065  -0.488  1.00  0.00    +0.000 OA
ENDBRANCH   1  24
TORSDOF 2
