REMARK  Name = /srv/my_project/app/compsite/backup/Dave/CORINA_stuff/newPDBs/SANC00483.pdb
AUTHORGENERATED BY OPEN BABEL 2.3.2
REMARK  19 active torsions:
REMARK  status: ('A' for Active; 'I' for Inactive)
REMARK    1  A    between atoms: C_1  and  C_2
REMARK    2  A    between atoms: C_2  and  C_3
REMARK    3  A    between atoms: C_2  and  O_4
REMARK    4  A    between atoms: C_2  and  C_5
REMARK    5  A    between atoms: C_5  and  C_6
REMARK    6  A    between atoms: C_6  and  O_8
REMARK    7  A    between atoms: C_6  and  C_9
REMARK    8  A    between atoms: C_9  and  O_10
REMARK    9  A    between atoms: C_19  and  C_21
REMARK   10  A    between atoms: C_33  and  C_34
REMARK   11  A    between atoms: C_38  and  O_40
REMARK   12  A    between atoms: C_41  and  C_42
REMARK   13  A    between atoms: C_50  and  C_51
REMARK   14  A    between atoms: C_50  and  C_52
REMARK   15  A    between atoms: C_52  and  O_53
REMARK   16  A    between atoms: C_55  and  O_57
REMARK   17  A    between atoms: C_58  and  C_60
REMARK   18  A    between atoms: C_61  and  O_62
REMARK   19  A    between atoms: C_74  and  C_75
REMARK                            x       y       z     vdW  Elec       q    Type
REMARK                         _______ _______ _______ _____ _____    ______ ____
ROOT
ATOM      1  C   UNL     1      11.047  -0.280  -0.365  1.00  0.00    +0.000 C 
ATOM      2  O   UNL     1       9.978   0.650  -0.489  1.00  0.00    +0.000 OA
ATOM      3  C   UNL     1       8.814   0.316   0.254  1.00  0.00    +0.000 C 
ATOM      4  C   UNL     1       8.219  -1.057  -0.088  1.00  0.00    +0.000 C 
ATOM      5  C   UNL     1       7.489  -1.653   1.106  1.00  0.00    +0.000 C 
ATOM      6  C   UNL     1       8.146  -2.705   1.613  1.00  0.00    +0.000 C 
ATOM      7  C   UNL     1       9.394  -3.020   0.865  1.00  0.00    +0.000 C 
ATOM      8  C   UNL     1       9.268  -2.159  -0.405  1.00  0.00    +0.000 C 
ATOM      9  C   UNL     1      10.633  -1.660  -0.950  1.00  0.00    +0.000 C 
ATOM     10  C   UNL     1      10.569  -1.634  -2.489  1.00  0.00    +0.000 C 
ATOM     11  C   UNL     1       6.180  -1.041   1.560  1.00  0.00    +0.000 C 
ATOM     12  C   UNL     1       5.559  -1.763   2.767  1.00  0.00    +0.000 C 
ATOM     13  C   UNL     1       4.202  -1.193   3.159  1.00  0.00    +0.000 C 
ATOM     14  C   UNL     1       3.235  -1.210   1.972  1.00  0.00    +0.000 C 
ATOM     15  C   UNL     1       1.839  -0.738   2.408  1.00  0.00    +0.000 C 
ATOM     16  C   UNL     1       0.885  -0.567   1.261  1.00  0.00    +0.000 A 
ATOM     17  N   UNL     1      -0.429  -0.454   1.580  1.00  0.00    +0.000 NA
ATOM     18  C   UNL     1      -1.292  -0.254   0.553  1.00  0.00    +0.000 A 
ATOM     19  C   UNL     1      -2.752  -0.178   0.912  1.00  0.00    +0.000 C 
ATOM     20  C   UNL     1      -3.664   0.458  -0.175  1.00  0.00    +0.000 C 
ATOM     21  C   UNL     1      -3.443   1.993  -0.167  1.00  0.00    +0.000 C 
ATOM     22  C   UNL     1      -5.171   0.101   0.112  1.00  0.00    +0.000 C 
ATOM     23  C   UNL     1      -5.688   0.583   1.496  1.00  0.00    +0.000 C 
ATOM     24  C   UNL     1      -7.179   0.261   1.729  1.00  0.00    +0.000 C 
ATOM     25  C   UNL     1      -8.087   0.808   0.594  1.00  0.00    +0.000 C 
ATOM     26  C   UNL     1      -8.067   2.350   0.576  1.00  0.00    +0.000 C 
ATOM     27  C   UNL     1      -7.525   0.195  -0.675  1.00  0.00    +0.000 C 
ATOM     28  C   UNL     1      -8.334  -0.750  -1.174  1.00  0.00    +0.000 C 
ATOM     29  C   UNL     1      -9.520  -0.988  -0.299  1.00  0.00    +0.000 C 
ATOM     30  O   UNL     1     -10.705  -1.020  -1.089  1.00  0.00    +0.000 OA
ATOM     31  C   UNL     1     -11.606  -0.041  -0.553  1.00  0.00    +0.000 C 
ATOM     32  O   UNL     1     -12.422   0.479  -1.615  1.00  0.00    +0.000 OA
ATOM     33  C   UNL     1     -13.605  -0.355  -1.726  1.00  0.00    +0.000 C 
ATOM     34  C   UNL     1     -13.586  -1.039  -3.093  1.00  0.00    +0.000 C 
ATOM     35  C   UNL     1     -13.531  -1.386  -0.591  1.00  0.00    +0.000 C 
ATOM     36  C   UNL     1     -12.619  -0.702   0.406  1.00  0.00    +0.000 C 
ATOM     37  C   UNL     1     -10.694   1.056   0.002  1.00  0.00    +0.000 C 
ATOM     38  C   UNL     1     -11.411   2.061   0.899  1.00  0.00    +0.000 C 
ATOM     39  C   UNL     1      -9.558   0.244   0.643  1.00  0.00    +0.000 C 
ATOM     40  C   UNL     1      -6.108   0.540  -1.058  1.00  0.00    +0.000 C 
ATOM     41  C   UNL     1      -5.645  -0.085  -2.383  1.00  0.00    +0.000 C 
ATOM     42  C   UNL     1      -4.188   0.248  -2.691  1.00  0.00    +0.000 C 
ATOM     43  C   UNL     1      -3.265  -0.181  -1.543  1.00  0.00    +0.000 C 
ATOM     44  C   UNL     1      -1.795   0.080  -1.906  1.00  0.00    +0.000 C 
ATOM     45  C   UNL     1      -0.851  -0.179  -0.767  1.00  0.00    +0.000 A 
ATOM     46  N   UNL     1       0.464  -0.279  -1.083  1.00  0.00    +0.000 NA
ATOM     47  C   UNL     1       1.328  -0.469  -0.056  1.00  0.00    +0.000 A 
ATOM     48  C   UNL     1       2.780  -0.627  -0.424  1.00  0.00    +0.000 C 
ATOM     49  C   UNL     1       3.782  -0.415   0.748  1.00  0.00    +0.000 C 
ATOM     50  C   UNL     1       3.880   1.105   1.043  1.00  0.00    +0.000 C 
ATOM     51  C   UNL     1       5.192  -1.006   0.359  1.00  0.00    +0.000 C 
ATOM     52  C   UNL     1       5.840  -0.300  -0.847  1.00  0.00    +0.000 C 
ATOM     53  C   UNL     1       7.178  -0.922  -1.211  1.00  0.00    +0.000 C 
ATOM     54  O   UNL     1       7.414  -1.234  -2.379  1.00  0.00    +0.000 OA
ENDROOT
BRANCH   1  55
ATOM     55  O   UNL     1      11.450  -0.413   1.006  1.00  0.00    +0.000 OA
ATOM     56  H   UNL     1      10.767  -0.905   1.480  1.00  0.00    +0.000 HD
ENDBRANCH   1  55
BRANCH  24  57
ATOM     57  O   UNL     1      -7.608   0.801   2.984  1.00  0.00    +0.000 OA
ATOM     58  H   UNL     1      -6.971   0.503   3.660  1.00  0.00    +0.000 HD
ENDBRANCH  24  57
BRANCH  36  59
ATOM     59  O   UNL     1     -12.109  -1.630   1.348  1.00  0.00    +0.000 OA
ATOM     60  H   UNL     1     -11.372  -1.185   1.820  1.00  0.00    +0.000 HD
ENDBRANCH  36  59
BRANCH  39  61
ATOM     61  O   UNL     1      -9.957  -0.155   1.964  1.00  0.00    +0.000 OA
ATOM     62  H   UNL     1      -9.421   0.375   2.598  1.00  0.00    +0.000 HD
ENDBRANCH  39  61
BRANCH   1  63
ATOM     63  C   UNL     1      12.306   0.335  -1.076  1.00  0.00    +0.000 C 
BRANCH  63  64
ATOM     64  O   UNL     1      13.426  -0.547  -0.919  1.00  0.00    +0.000 OA
ATOM     65  H   UNL     1      13.444  -0.757   0.037  1.00  0.00    +0.000 HD
ENDBRANCH  63  64
BRANCH  63  66
ATOM     66  C   UNL     1      12.669   1.738  -0.539  1.00  0.00    +0.000 C 
BRANCH  66  68
ATOM     67  C   UNL     1      13.913   3.869  -1.036  1.00  0.00    +0.000 C 
ATOM     68  C   UNL     1      13.994   2.338  -1.066  1.00  0.00    +0.000 C 
ATOM     69  C   UNL     1      15.207   1.895  -0.237  1.00  0.00    +0.000 C 
BRANCH  68  70
ATOM     70  O   UNL     1      14.213   1.959  -2.425  1.00  0.00    +0.000 OA
ATOM     71  H   UNL     1      14.371   0.994  -2.425  1.00  0.00    +0.000 HD
ENDBRANCH  68  70
ENDBRANCH  66  68
ENDBRANCH  63  66
ENDBRANCH   1  63
BRANCH  33  72
ATOM     72  C   UNL     1     -14.831   0.573  -1.601  1.00  0.00    +0.000 C 
BRANCH  72  73
ATOM     73  O   UNL     1     -16.069  -0.113  -1.742  1.00  0.00    +0.000 OA
ATOM     74  H   UNL     1     -16.227  -0.623  -0.931  1.00  0.00    +0.000 HD
ENDBRANCH  72  73
ENDBRANCH  33  72
TORSDOF 11
