REMARK  Name = /srv/my_project/app/compsite/backup/Dave/CORINA_stuff/newPDBs/SANC00567.pdb
AUTHORGENERATED BY OPEN BABEL 2.3.2
REMARK  10 active torsions:
REMARK  status: ('A' for Active; 'I' for Inactive)
REMARK    1  A    between atoms: C_1  and  O_2
REMARK    2  A    between atoms: O_2  and  C_3
REMARK    3  A    between atoms: C_5  and  O_6
REMARK    4  A    between atoms: C_10  and  O_11
REMARK    5  A    between atoms: C_10  and  C_12
REMARK    6  A    between atoms: C_12  and  C_13
REMARK    7  A    between atoms: C_16  and  O_17
REMARK    8  A    between atoms: O_17  and  C_18
REMARK    9  A    between atoms: C_19  and  O_20
REMARK   10  A    between atoms: O_20  and  C_21
REMARK                            x       y       z     vdW  Elec       q    Type
REMARK                         _______ _______ _______ _____ _____    ______ ____
ROOT
ATOM      1  C   UNL     1       4.951  -0.178   1.454  1.00  0.00    +0.000 A 
ATOM      2  C   UNL     1       4.496   0.961   0.788  1.00  0.00    +0.000 A 
ATOM      3  C   UNL     1       3.251   0.948   0.159  1.00  0.00    +0.000 A 
ATOM      4  C   UNL     1       2.452  -0.199   0.189  1.00  0.00    +0.000 A 
ATOM      5  C   UNL     1       1.113  -0.228  -0.432  1.00  0.00    +0.000 C 
ATOM      6  O   UNL     1       0.788   0.711  -1.155  1.00  0.00    +0.000 OA
ATOM      7  C   UNL     1       0.241  -1.447  -0.104  1.00  0.00    +0.000 C 
ATOM      8  C   UNL     1       1.208  -2.643  -0.123  1.00  0.00    +0.000 C 
ATOM      9  O   UNL     1       2.210  -2.517   0.900  1.00  0.00    +0.000 OA
ATOM     10  C   UNL     1       2.917  -1.346   0.830  1.00  0.00    +0.000 A 
ATOM     11  C   UNL     1       4.154  -1.328   1.473  1.00  0.00    +0.000 A 
ENDROOT
BRANCH   1  13
ATOM     12  C   UNL     1       6.984   0.847   2.140  1.00  0.00    +0.000 C 
ATOM     13  O   UNL     1       6.142  -0.300   2.116  1.00  0.00    +0.000 OA
ENDBRANCH   1  13
BRANCH   3  14
ATOM     14  O   UNL     1       2.871   2.105  -0.467  1.00  0.00    +0.000 OA
ATOM     15  H   UNL     1       1.993   1.954  -0.888  1.00  0.00    +0.000 HD
ENDBRANCH   3  14
BRANCH   7  16
ATOM     16  O   UNL     1      -0.336  -1.362   1.203  1.00  0.00    +0.000 OA
ATOM     17  H   UNL     1       0.379  -1.467   1.859  1.00  0.00    +0.000 HD
ENDBRANCH   7  16
BRANCH   7  18
ATOM     18  C   UNL     1      -0.864  -1.682  -1.159  1.00  0.00    +0.000 C 
BRANCH  18  19
ATOM     19  C   UNL     1      -1.999  -0.678  -1.191  1.00  0.00    +0.000 A 
ATOM     20  C   UNL     1      -2.100   0.250  -2.232  1.00  0.00    +0.000 A 
ATOM     21  C   UNL     1      -3.159   1.162  -2.275  1.00  0.00    +0.000 A 
ATOM     22  C   UNL     1      -4.137   1.162  -1.276  1.00  0.00    +0.000 A 
ATOM     23  C   UNL     1      -4.045   0.236  -0.219  1.00  0.00    +0.000 A 
ATOM     24  C   UNL     1      -2.983  -0.678  -0.191  1.00  0.00    +0.000 A 
BRANCH  22  25
ATOM     25  O   UNL     1      -5.210   2.018  -1.239  1.00  0.00    +0.000 OA
ATOM     26  C   UNL     1      -5.304   2.997  -2.263  1.00  0.00    +0.000 C 
ENDBRANCH  22  25
BRANCH  23  27
ATOM     27  O   UNL     1      -5.042   0.292   0.724  1.00  0.00    +0.000 OA
ATOM     28  C   UNL     1      -4.859  -0.467   1.910  1.00  0.00    +0.000 C 
ENDBRANCH  23  27
ENDBRANCH  18  19
ENDBRANCH   7  18
TORSDOF 7
