REMARK  Name = /srv/my_project/app/compsite/backup/Dave/CORINA_stuff/newPDBs/SANC00641.pdb
AUTHORGENERATED BY OPEN BABEL 2.3.2
REMARK  3 active torsions:
REMARK  status: ('A' for Active; 'I' for Inactive)
REMARK    1  A    between atoms: C_4  and  C_7
REMARK    2  A    between atoms: C_7  and  C_8
REMARK    3  A    between atoms: C_13  and  O_18
REMARK                            x       y       z     vdW  Elec       q    Type
REMARK                         _______ _______ _______ _____ _____    ______ ____
ROOT
ATOM      1  C   UNL     1      -0.785  -1.823  -0.369  1.00  0.00    +0.000 C 
ATOM      2  C   UNL     1      -1.481  -0.663   0.241  1.00  0.00    +0.000 A 
ATOM      3  C   UNL     1      -1.867  -0.420   1.549  1.00  0.00    +0.000 A 
ATOM      4  C   UNL     1      -2.516   0.788   1.834  1.00  0.00    +0.000 A 
ATOM      5  C   UNL     1      -2.773   1.727   0.819  1.00  0.00    +0.000 A 
ATOM      6  C   UNL     1      -2.384   1.462  -0.490  1.00  0.00    +0.000 A 
ATOM      7  C   UNL     1      -1.746   0.265  -0.746  1.00  0.00    +0.000 A 
ATOM      8  C   UNL     1      -1.262  -0.244  -2.014  1.00  0.00    +0.000 C 
ATOM      9  O   UNL     1      -1.345   0.337  -3.080  1.00  0.00    +0.000 OA
ATOM     10  O   UNL     1      -0.735  -1.480  -1.778  1.00  0.00    +0.000 OA
ENDROOT
BRANCH   6  11
ATOM     11  O   UNL     1      -2.651   2.384  -1.455  1.00  0.00    +0.000 OA
ATOM     12  H   UNL     1      -2.300   2.051  -2.309  1.00  0.00    +0.000 HD
ENDBRANCH   6  11
BRANCH   1  13
ATOM     13  C   UNL     1       0.622  -2.129   0.166  1.00  0.00    +0.000 C 
BRANCH  13  17
ATOM     14  C   UNL     1       3.352   1.215   0.046  1.00  0.00    +0.000 A 
ATOM     15  C   UNL     1       3.108   0.472  -1.106  1.00  0.00    +0.000 A 
ATOM     16  C   UNL     1       2.234  -0.615  -1.065  1.00  0.00    +0.000 A 
ATOM     17  C   UNL     1       1.591  -0.967   0.130  1.00  0.00    +0.000 A 
ATOM     18  C   UNL     1       1.847  -0.214   1.284  1.00  0.00    +0.000 A 
ATOM     19  C   UNL     1       2.723   0.872   1.241  1.00  0.00    +0.000 A 
ENDBRANCH  13  17
ENDBRANCH   1  13
TORSDOF 3
