REMARK  Name = /srv/my_project/app/compsite/backup/Dave/CORINA_stuff/newPDBs/SANC00467.pdb
AUTHORGENERATED BY OPEN BABEL 2.3.2
REMARK  4 active torsions:
REMARK  status: ('A' for Active; 'I' for Inactive)
REMARK    1  A    between atoms: C_2  and  O_3
REMARK    2  A    between atoms: C_2  and  C_4
REMARK    3  A    between atoms: C_7  and  O_8
REMARK    4  A    between atoms: C_9  and  O_10
REMARK                            x       y       z     vdW  Elec       q    Type
REMARK                         _______ _______ _______ _____ _____    ______ ____
ROOT
ATOM      1  C   UNL     1       1.052  -0.094   0.067  1.00  0.00    +0.000 A 
ATOM      2  C   UNL     1       0.624  -1.000  -0.918  1.00  0.00    +0.000 A 
ATOM      3  C   UNL     1      -0.733  -1.114  -1.231  1.00  0.00    +0.000 A 
ATOM      4  C   UNL     1      -1.651  -0.322  -0.557  1.00  0.00    +0.000 A 
ATOM      5  C   UNL     1      -1.227   0.602   0.395  1.00  0.00    +0.000 A 
ATOM      6  C   UNL     1       0.117   0.713   0.728  1.00  0.00    +0.000 A 
ENDROOT
BRANCH   1   8
ATOM      7  O   UNL     1       3.373  -0.684  -0.164  1.00  0.00    +0.000 OA
ATOM      8  C   UNL     1       2.502  -0.019   0.366  1.00  0.00    +0.000 C 
BRANCH   8   9
ATOM      9  O   UNL     1       2.794   0.885   1.317  1.00  0.00    +0.000 OA
ATOM     10  H   UNL     1       3.768   0.825   1.409  1.00  0.00    +0.000 HD
ENDBRANCH   8   9
ENDBRANCH   1   8
BRANCH   4  11
ATOM     11  O   UNL     1      -2.980  -0.483  -0.821  1.00  0.00    +0.000 OA
ATOM     12  H   UNL     1      -3.440  -0.391   0.034  1.00  0.00    +0.000 HD
ENDBRANCH   4  11
BRANCH   5  13
ATOM     13  O   UNL     1      -2.125   1.435   0.998  1.00  0.00    +0.000 OA
ATOM     14  H   UNL     1      -2.782   1.666   0.315  1.00  0.00    +0.000 HD
ENDBRANCH   5  13
TORSDOF 4
