REMARK  Name = [H][C@]27C[C@@]16C(=CC(=O)[C@]([H])([N+]3=c4c1c(N2)c(=O)c5[nH]cc(CC3)c45)[C@...
REMARK  2 active torsions:
REMARK  status: ('A' for Active; 'I' for Inactive)
REMARK    1  A    between atoms: C_4  and  O_14
REMARK    2  A    between atoms: O_14  and  C_27
REMARK                            x       y       z     vdW  Elec       q    Type
REMARK                         _______ _______ _______ _____ _____    ______ ____
ROOT
ATOM      1  O   UNL     1      -0.989  -2.101  -2.809  1.00  0.00    +0.000 OA
ATOM      2  O   UNL     1       2.158   3.822   0.672  1.00  0.00    +0.000 OA
ATOM      3  C   UNL     1      -1.907  -0.029  -2.169  1.00  0.00    +0.000 C 
ATOM      4  C   UNL     1       4.464   0.285  -0.383  1.00  0.00    +0.000 A 
ATOM      5  C   UNL     1       3.056  -1.881  -0.979  1.00  0.00    +0.000 C 
ATOM      6  C   UNL     1       1.659  -2.415  -0.534  1.00  0.00    +0.000 C 
ATOM      7  C   UNL     1      -2.353   1.555   1.085  1.00  0.00    +0.000 C 
ATOM      8  N   UNL     1      -0.664   3.214   0.638  1.00  0.00    +0.000 N 
ATOM      9  N   UNL     1       4.077   1.554   0.036  1.00  0.00    +0.000 N 
ATOM     10  S   UNL     1      -2.433   2.541  -1.356  1.00  0.00    +0.000 S 
ATOM     11  C   UNL     1      -1.286  -1.355  -1.878  1.00  0.00    +0.000 C 
ATOM     12  C   UNL     1      -1.955   0.869  -1.177  1.00  0.00    +0.000 C 
ATOM     13  C   UNL     1       3.340  -0.506  -0.473  1.00  0.00    +0.000 A 
ATOM     14  C   UNL     1       0.334   2.248   0.502  1.00  0.00    +0.000 C 
ATOM     15  C   UNL     1      -0.028   0.958   0.300  1.00  0.00    +0.000 C 
ATOM     16  C   UNL     1       1.814   2.664   0.484  1.00  0.00    +0.000 C 
ATOM     17  C   UNL     1       0.929  -0.125  -0.036  1.00  0.00    +0.000 C 
ATOM     18  C   UNL     1       2.713   1.573   0.191  1.00  0.00    +0.000 A 
ATOM     19  C   UNL     1       2.281   0.300  -0.057  1.00  0.00    +0.000 A 
ATOM     20  N   UNL     1       0.596  -1.337  -0.328  1.00  0.00    +0.000 N 
ATOM     21  C   UNL     1      -2.082   2.914   0.425  1.00  0.00    +0.000 C 
ATOM     22  C   UNL     1      -1.669  -0.904   0.598  1.00  0.00    +0.000 C 
ATOM     23  C   UNL     1      -0.865  -1.701  -0.447  1.00  0.00    +0.000 C 
ATOM     24  C   UNL     1      -1.502   0.585   0.242  1.00  0.00    +0.000 C 
ATOM     25  H   UNL     1      -0.357   4.165   0.417  1.00  0.00    +0.000 HD
ATOM     26  H   UNL     1       4.691   2.356   0.145  1.00  0.00    +0.000 HD
ENDROOT
BRANCH  22  28
ATOM     27  C   UNL     1      -3.369  -2.402   1.378  1.00  0.00    +0.000 C 
ATOM     28  O   UNL     1      -3.050  -1.265   0.582  1.00  0.00    +0.000 OA
ENDBRANCH  22  28
TORSDOF 1
