REMARK  Name = SANCDB_00773_minRM1.pdb
AUTHORGENERATED BY OPEN BABEL 2.3.2
REMARK  5 active torsions:
REMARK  status: ('A' for Active; 'I' for Inactive)
REMARK    1  A    between atoms: C_1  and  C_2
REMARK    2  A    between atoms: C_5  and  C_6
REMARK    3  A    between atoms: C_6  and  C_7
REMARK    4  A    between atoms: C_11  and  C_12
REMARK    5  A    between atoms: C_11  and  C_13
REMARK                            x       y       z     vdW  Elec       q    Type
REMARK                         _______ _______ _______ _____ _____    ______ ____
ROOT
ATOM      1  C   UNL     1      -0.773   0.430  -0.488  1.00  0.00    +0.000 C 
ATOM      2  C   UNL     1      -1.005   1.960  -0.627  1.00  0.00    +0.000 C 
ATOM      3  C   UNL     1      -1.303  -0.235  -1.792  1.00  0.00    +0.000 C 
ATOM      4  C   UNL     1      -2.817  -0.331  -1.641  1.00  0.00    +0.000 C 
ATOM      5  C   UNL     1      -3.103  -0.265  -0.144  1.00  0.00    +0.000 C 
ATOM      6  C   UNL     1      -1.731  -0.243   0.579  1.00  0.00    +0.000 C 
ATOM      7  C   UNL     1      -1.896   0.505   1.914  1.00  0.00    +0.000 C 
ATOM      8  C   UNL     1      -1.323  -1.699   0.911  1.00  0.00    +0.000 C 
ENDROOT
BRANCH   1  13
ATOM      9  C   UNL     1       4.985  -0.314   0.492  1.00  0.00    +0.000 C 
ATOM     10  C   UNL     1       3.515  -0.150   0.249  1.00  0.00    +0.000 A 
ATOM     11  C   UNL     1       2.720   0.559   1.148  1.00  0.00    +0.000 A 
ATOM     12  C   UNL     1       1.354   0.737   0.902  1.00  0.00    +0.000 A 
ATOM     13  C   UNL     1       0.732   0.213  -0.246  1.00  0.00    +0.000 A 
ATOM     14  C   UNL     1       1.558  -0.466  -1.157  1.00  0.00    +0.000 A 
ATOM     15  C   UNL     1       2.926  -0.646  -0.914  1.00  0.00    +0.000 A 
ENDBRANCH   1  13
TORSDOF 1
