REMARK  Name = /srv/my_project/app/compsite/backup/Dave/CORINA_stuff/newPDBs/SANC00255.pdb
AUTHORGENERATED BY OPEN BABEL 2.3.2
REMARK  6 active torsions:
REMARK  status: ('A' for Active; 'I' for Inactive)
REMARK    1  A    between atoms: C_2  and  C_3
REMARK    2  A    between atoms: C_3  and  C_4
REMARK    3  A    between atoms: C_3  and  C_6
REMARK    4  A    between atoms: C_6  and  C_9
REMARK    5  A    between atoms: C_10  and  C_11
REMARK    6  A    between atoms: C_11  and  C_12
REMARK                            x       y       z     vdW  Elec       q    Type
REMARK                         _______ _______ _______ _____ _____    ______ ____
ROOT
ATOM      1  C   UNL     1      -0.601  -0.722   0.457  1.00  0.00    +0.000 C 
ATOM      2 CL   UNL     1      -1.015  -0.793   2.216  1.00  0.00    +0.000 Cl
ENDROOT
BRANCH   1   3
ATOM      3  C   UNL     1      -1.741  -0.050  -0.384  1.00  0.00    +0.000 C 
ATOM      4  C   UNL     1      -1.939   1.438  -0.043  1.00  0.00    +0.000 C 
ATOM      5 CL   UNL     1      -1.273  -0.121  -2.150  1.00  0.00    +0.000 Cl
BRANCH   3   7
ATOM      6  C   UNL     1      -4.234  -0.485   0.131  1.00  0.00    +0.000 C 
ATOM      7  C   UNL     1      -3.026  -0.876  -0.302  1.00  0.00    +0.000 C 
ENDBRANCH   3   7
ENDBRANCH   1   3
BRANCH   1   8
ATOM      8  C   UNL     1       0.758  -0.058   0.369  1.00  0.00    +0.000 C 
ATOM      9  C   UNL     1       1.842  -0.631  -0.181  1.00  0.00    +0.000 C 
BRANCH   9  10
ATOM     10  C   UNL     1       3.173  -0.048  -0.302  1.00  0.00    +0.000 C 
ATOM     11  C   UNL     1       4.272  -0.742  -0.639  1.00  0.00    +0.000 C 
ATOM     12 CL   UNL     1       4.345  -2.428  -0.960  1.00  0.00    +0.000 Cl
BRANCH  10  13
ATOM     13  C   UNL     1       3.449   1.410  -0.089  1.00  0.00    +0.000 C 
ATOM     14  O   UNL     1       2.588   2.277  -0.005  1.00  0.00    +0.000 OA
ENDBRANCH  10  13
ENDBRANCH   9  10
ENDBRANCH   1   8
TORSDOF 5
