REMARK  Name = /srv/my_project/app/compsite/backup/Dave/CORINA_stuff/newPDBs/SANC00193.pdb
AUTHORGENERATED BY OPEN BABEL 2.3.2
REMARK  5 active torsions:
REMARK  status: ('A' for Active; 'I' for Inactive)
REMARK    1  A    between atoms: O_1  and  C_2
REMARK    2  A    between atoms: C_2  and  C_19
REMARK    3  A    between atoms: C_5  and  C_16
REMARK    4  A    between atoms: C_16  and  C_17
REMARK    5  A    between atoms: C_16  and  C_18
REMARK                            x       y       z     vdW  Elec       q    Type
REMARK                         _______ _______ _______ _____ _____    ______ ____
ROOT
ATOM      1  C   UNL     1       0.561   2.044  -0.595  1.00  0.00    +0.000 C 
ATOM      2  C   UNL     1      -0.858   2.371  -0.110  1.00  0.00    +0.000 C 
ATOM      3  C   UNL     1      -1.802   1.175  -0.213  1.00  0.00    +0.000 C 
ATOM      4  C   UNL     1      -1.277  -0.047   0.564  1.00  0.00    +0.000 C 
ATOM      5  C   UNL     1       0.163  -0.412   0.079  1.00  0.00    +0.000 C 
ATOM      6  C   UNL     1       1.118   0.822   0.187  1.00  0.00    +0.000 C 
ATOM      7  C   UNL     1       2.550   0.435  -0.249  1.00  0.00    +0.000 C 
ATOM      8  C   UNL     1       3.100  -0.742   0.554  1.00  0.00    +0.000 C 
ATOM      9  C   UNL     1       2.165  -1.911   0.460  1.00  0.00    +0.000 C 
ATOM     10  C   UNL     1       2.561  -3.121   0.036  1.00  0.00    +0.000 C 
ATOM     11  C   UNL     1       0.743  -1.614   0.860  1.00  0.00    +0.000 C 
ATOM     12  C   UNL     1       1.435   3.296  -0.440  1.00  0.00    +0.000 C 
ENDROOT
BRANCH   4  13
ATOM     13  C   UNL     1      -2.285  -1.239   0.540  1.00  0.00    +0.000 C 
ATOM     14  C   UNL     1      -3.650  -0.860   1.130  1.00  0.00    +0.000 C 
ATOM     15  C   UNL     1      -2.484  -1.860  -0.845  1.00  0.00    +0.000 C 
ENDBRANCH   4  13
BRANCH   1  16
ATOM     16  O   UNL     1       0.473   1.742  -1.990  1.00  0.00    +0.000 OA
ATOM     17  H   UNL     1       1.374   1.664  -2.346  1.00  0.00    +0.000 HD
ENDBRANCH   1  16
TORSDOF 2
