REMARK  Name = SANCDB_00904_minRM1.pdb
AUTHORGENERATED BY OPEN BABEL 2.3.2
REMARK  17 active torsions:
REMARK  status: ('A' for Active; 'I' for Inactive)
REMARK    1  A    between atoms: C_1  and  C_2
REMARK    2  A    between atoms: C_5  and  O_27
REMARK    3  A    between atoms: C_14  and  C_26
REMARK    4  A    between atoms: C_15  and  O_25
REMARK    5  A    between atoms: C_18  and  C_19
REMARK    6  A    between atoms: O_27  and  C_28
REMARK    7  A    between atoms: C_29  and  O_49
REMARK    8  A    between atoms: C_30  and  O_48
REMARK    9  A    between atoms: C_31  and  O_47
REMARK   10  A    between atoms: C_32  and  C_34
REMARK   11  A    between atoms: C_34  and  O_35
REMARK   12  A    between atoms: O_35  and  C_36
REMARK   13  A    between atoms: C_37  and  O_46
REMARK   14  A    between atoms: C_38  and  O_45
REMARK   15  A    between atoms: C_39  and  O_44
REMARK   16  A    between atoms: C_40  and  C_42
REMARK   17  A    between atoms: C_42  and  O_43
REMARK                            x       y       z     vdW  Elec       q    Type
REMARK                         _______ _______ _______ _____ _____    ______ ____
ROOT
ATOM      1  C   UNL     1      -2.398   3.186  -0.279  1.00  0.00    +0.000 C 
ATOM      2  C   UNL     1      -2.840   3.827   1.066  1.00  0.00    +0.000 C 
ATOM      3  C   UNL     1      -4.050   4.728   0.830  1.00  0.00    +0.000 C 
ATOM      4  C   UNL     1      -5.226   3.951   0.206  1.00  0.00    +0.000 C 
ATOM      5  C   UNL     1      -4.706   2.758  -0.623  1.00  0.00    +0.000 C 
ATOM      6  O   UNL     1      -3.473   3.151  -1.240  1.00  0.00    +0.000 OA
ENDROOT
BRANCH   4   7
ATOM      7  O   UNL     1      -5.972   4.899  -0.572  1.00  0.00    +0.000 OA
ATOM      8  H   UNL     1      -5.454   5.097  -1.374  1.00  0.00    +0.000 HD
ENDBRANCH   4   7
BRANCH   3   9
ATOM      9  O   UNL     1      -4.448   5.330   2.072  1.00  0.00    +0.000 OA
ATOM     10  H   UNL     1      -5.269   5.825   1.878  1.00  0.00    +0.000 HD
ENDBRANCH   3   9
BRANCH   2  11
ATOM     11  O   UNL     1      -1.780   4.605   1.647  1.00  0.00    +0.000 OA
ATOM     12  H   UNL     1      -2.213   5.131   2.350  1.00  0.00    +0.000 HD
ENDBRANCH   2  11
BRANCH   1  13
ATOM     13  O   UNL     1      -1.946   1.843  -0.077  1.00  0.00    +0.000 OA
BRANCH  13  18
ATOM     14  C   UNL     1       2.336   2.062   1.625  1.00  0.00    +0.000 C 
ATOM     15  C   UNL     1       2.129   0.784   0.757  1.00  0.00    +0.000 C 
ATOM     16  C   UNL     1       1.691   1.197  -0.664  1.00  0.00    +0.000 C 
ATOM     17  C   UNL     1       0.403   2.028  -0.707  1.00  0.00    +0.000 C 
ATOM     18  C   UNL     1      -0.602   1.733   0.414  1.00  0.00    +0.000 C 
ATOM     19  C   UNL     1      -0.444   0.318   0.962  1.00  0.00    +0.000 C 
ATOM     20  C   UNL     1       0.991  -0.100   1.391  1.00  0.00    +0.000 C 
ATOM     21  C   UNL     1       1.095  -1.625   1.124  1.00  0.00    +0.000 C 
ATOM     22  C   UNL     1       2.499  -2.217   1.161  1.00  0.00    +0.000 C 
ATOM     23  C   UNL     1       3.390  -1.426   0.209  1.00  0.00    +0.000 C 
ATOM     24  C   UNL     1       3.503   0.015   0.773  1.00  0.00    +0.000 C 
ATOM     25  C   UNL     1       4.710   0.751   0.159  1.00  0.00    +0.000 C 
ATOM     26  C   UNL     1       6.068   0.050   0.423  1.00  0.00    +0.000 C 
ATOM     27  C   UNL     1       5.962  -1.477   0.677  1.00  0.00    +0.000 C 
ATOM     28  C   UNL     1       4.769  -2.039  -0.136  1.00  0.00    +0.000 C 
ATOM     29  C   UNL     1       4.961  -3.549  -0.048  1.00  0.00    +0.000 C 
ATOM     30  C   UNL     1       6.481  -3.731  -0.206  1.00  0.00    +0.000 C 
ATOM     31  C   UNL     1       7.160  -2.384   0.195  1.00  0.00    +0.000 C 
ATOM     32  C   UNL     1       5.862  -1.730   2.211  1.00  0.00    +0.000 C 
BRANCH  31  33
ATOM     33  C   UNL     1       8.098  -1.821  -0.839  1.00  0.00    +0.000 C 
ATOM     34  C   UNL     1       8.063  -1.919  -2.168  1.00  0.00    +0.000 C 
ATOM     35  C   UNL     1       9.221  -1.197  -2.688  1.00  0.00    +0.000 C 
ATOM     36  O   UNL     1       9.499  -1.082  -3.868  1.00  0.00    +0.000 OA
ATOM     37  O   UNL     1       9.936  -0.690  -1.648  1.00  0.00    +0.000 OA
ATOM     38  C   UNL     1       9.293  -1.044  -0.425  1.00  0.00    +0.000 C 
ENDBRANCH  31  33
BRANCH  28  39
ATOM     39  O   UNL     1       4.998  -1.700  -1.528  1.00  0.00    +0.000 OA
ATOM     40  H   UNL     1       4.310  -2.135  -2.062  1.00  0.00    +0.000 HD
ENDBRANCH  28  39
ENDBRANCH  13  18
ENDBRANCH   1  13
BRANCH   5  41
ATOM     41  C   UNL     1      -5.677   2.254  -1.696  1.00  0.00    +0.000 C 
BRANCH  41  42
ATOM     42  O   UNL     1      -6.874   1.726  -1.126  1.00  0.00    +0.000 OA
BRANCH  42  43
ATOM     43  C   UNL     1      -6.763   0.347  -0.762  1.00  0.00    +0.000 C 
ATOM     44  C   UNL     1      -7.981  -0.007   0.129  1.00  0.00    +0.000 C 
ATOM     45  C   UNL     1      -8.291  -1.514   0.079  1.00  0.00    +0.000 C 
ATOM     46  C   UNL     1      -7.039  -2.311  -0.303  1.00  0.00    +0.000 C 
ATOM     47  C   UNL     1      -6.504  -1.848  -1.675  1.00  0.00    +0.000 C 
ATOM     48  O   UNL     1      -6.766  -0.462  -1.935  1.00  0.00    +0.000 OA
BRANCH  46  49
ATOM     49  O   UNL     1      -7.316  -3.714  -0.348  1.00  0.00    +0.000 OA
ATOM     50  H   UNL     1      -8.242  -3.798  -0.657  1.00  0.00    +0.000 HD
ENDBRANCH  46  49
BRANCH  45  51
ATOM     51  O   UNL     1      -9.332  -1.810  -0.868  1.00  0.00    +0.000 OA
ATOM     52  H   UNL     1      -9.159  -1.295  -1.681  1.00  0.00    +0.000 HD
ENDBRANCH  45  51
BRANCH  44  53
ATOM     53  O   UNL     1      -7.689   0.379   1.483  1.00  0.00    +0.000 OA
ATOM     54  H   UNL     1      -8.543   0.450   1.947  1.00  0.00    +0.000 HD
ENDBRANCH  44  53
BRANCH  47  55
ATOM     55  C   UNL     1      -5.009  -2.169  -1.823  1.00  0.00    +0.000 C 
BRANCH  55  56
ATOM     56  O   UNL     1      -4.752  -3.569  -1.798  1.00  0.00    +0.000 OA
ATOM     57  H   UNL     1      -5.383  -3.992  -1.180  1.00  0.00    +0.000 HD
ENDBRANCH  55  56
ENDBRANCH  47  55
ENDBRANCH  42  43
ENDBRANCH  41  42
ENDBRANCH   5  41
TORSDOF 15
