REMARK  Name = SANCDB_00938_minRM1.pdb
AUTHORGENERATED BY OPEN BABEL 2.3.2
REMARK  5 active torsions:
REMARK  status: ('A' for Active; 'I' for Inactive)
REMARK    1  A    between atoms: C_1  and  C_2
REMARK    2  A    between atoms: C_2  and  C_25
REMARK    3  A    between atoms: C_11  and  O_12
REMARK    4  A    between atoms: C_15  and  C_18
REMARK    5  A    between atoms: C_21  and  O_24
REMARK                            x       y       z     vdW  Elec       q    Type
REMARK                         _______ _______ _______ _____ _____    ______ ____
ROOT
ATOM      1  C   UNL     1      -5.770   0.778  -0.879  1.00  0.00    +0.000 C 
ATOM      2  C   UNL     1      -4.948  -0.025   0.137  1.00  0.00    +0.000 C 
ATOM      3  C   UNL     1      -4.541  -1.342  -0.480  1.00  0.00    +0.000 C 
ATOM      4  C   UNL     1      -3.269  -1.712  -0.651  1.00  0.00    +0.000 C 
ATOM      5  C   UNL     1      -2.217  -0.800  -0.220  1.00  0.00    +0.000 A 
ATOM      6  C   UNL     1      -2.576   0.423   0.358  1.00  0.00    +0.000 A 
ATOM      7  O   UNL     1      -3.865   0.833   0.552  1.00  0.00    +0.000 OA
ATOM      8  C   UNL     1      -1.594   1.322   0.783  1.00  0.00    +0.000 A 
ATOM      9  C   UNL     1      -0.246   1.005   0.633  1.00  0.00    +0.000 A 
ATOM     10  C   UNL     1       0.128  -0.207   0.060  1.00  0.00    +0.000 A 
ATOM     11  C   UNL     1      -0.855  -1.112  -0.368  1.00  0.00    +0.000 A 
ATOM     12  C   UNL     1       1.565  -0.501  -0.079  1.00  0.00    +0.000 A 
ATOM     13  O   UNL     1       1.921  -1.563  -0.585  1.00  0.00    +0.000 OA
ATOM     14  C   UNL     1       2.523   0.524   0.416  1.00  0.00    +0.000 A 
ATOM     15  C   UNL     1       1.995   1.643   0.935  1.00  0.00    +0.000 A 
ATOM     16  O   UNL     1       0.661   1.936   1.072  1.00  0.00    +0.000 OA
ATOM     17  C   UNL     1      -5.791  -0.292   1.389  1.00  0.00    +0.000 C 
ENDROOT
BRANCH  14  18
ATOM     18  C   UNL     1       3.984   0.354   0.320  1.00  0.00    +0.000 A 
ATOM     19  C   UNL     1       4.806   0.533   1.445  1.00  0.00    +0.000 A 
ATOM     20  C   UNL     1       6.193   0.379   1.349  1.00  0.00    +0.000 A 
ATOM     21  C   UNL     1       6.760   0.043   0.126  1.00  0.00    +0.000 A 
ATOM     22  C   UNL     1       5.966  -0.144  -0.998  1.00  0.00    +0.000 A 
ATOM     23  C   UNL     1       4.581   0.009  -0.901  1.00  0.00    +0.000 A 
BRANCH  21  24
ATOM     24  O   UNL     1       8.107  -0.117  -0.014  1.00  0.00    +0.000 OA
ATOM     25  H   UNL     1       8.528   0.011   0.851  1.00  0.00    +0.000 HD
ENDBRANCH  21  24
ENDBRANCH  14  18
BRANCH  11  26
ATOM     26  O   UNL     1      -0.522  -2.320  -0.937  1.00  0.00    +0.000 OA
ATOM     27  H   UNL     1       0.460  -2.391  -0.966  1.00  0.00    +0.000 HD
ENDBRANCH  11  26
TORSDOF 3
