REMARK  Name = /srv/my_project/app/compsite/backup/Dave/CORINA_stuff/newPDBs/SANC00334.pdb
AUTHORGENERATED BY OPEN BABEL 2.3.2
REMARK  6 active torsions:
REMARK  status: ('A' for Active; 'I' for Inactive)
REMARK    1  A    between atoms: C_1  and  O_2
REMARK    2  A    between atoms: O_2  and  C_3
REMARK    3  A    between atoms: C_8  and  O_9
REMARK    4  A    between atoms: N_11  and  C_12
REMARK    5  A    between atoms: C_14  and  C_16
REMARK    6  A    between atoms: C_19  and  O_20
REMARK                            x       y       z     vdW  Elec       q    Type
REMARK                         _______ _______ _______ _____ _____    ______ ____
ROOT
ATOM      1  C   UNL     1       2.763  -0.339   0.391  1.00  0.00    +0.000 A 
ATOM      2  C   UNL     1       1.377  -0.413   0.524  1.00  0.00    +0.000 A 
ATOM      3  C   UNL     1       0.554   0.658   0.114  1.00  0.00    +0.000 A 
ATOM      4  C   UNL     1       1.146   1.837  -0.389  1.00  0.00    +0.000 A 
ATOM      5  C   UNL     1       2.539   1.903  -0.524  1.00  0.00    +0.000 A 
ATOM      6  C   UNL     1       3.324   0.827  -0.134  1.00  0.00    +0.000 A 
ATOM      7  C   UNL     1       0.307   3.013  -0.845  1.00  0.00    +0.000 C 
ATOM      8  N   UNL     1      -1.041   3.077  -0.260  1.00  0.00    +0.000 NA
ATOM      9  C   UNL     1      -1.020   3.561   1.117  1.00  0.00    +0.000 C 
ATOM     10  C   UNL     1      -1.697   1.766  -0.395  1.00  0.00    +0.000 C 
ATOM     11  C   UNL     1      -0.961   0.586   0.298  1.00  0.00    +0.000 C 
ENDROOT
BRANCH  11  12
ATOM     12  C   UNL     1      -1.588  -0.735  -0.138  1.00  0.00    +0.000 A 
ATOM     13  C   UNL     1      -2.420  -1.443   0.746  1.00  0.00    +0.000 A 
ATOM     14  C   UNL     1      -3.007  -2.651   0.360  1.00  0.00    +0.000 A 
ATOM     15  C   UNL     1      -2.765  -3.154  -0.914  1.00  0.00    +0.000 A 
ATOM     16  C   UNL     1      -1.949  -2.469  -1.806  1.00  0.00    +0.000 A 
ATOM     17  C   UNL     1      -1.364  -1.262  -1.422  1.00  0.00    +0.000 A 
BRANCH  15  18
ATOM     18  O   UNL     1      -3.316  -4.329  -1.331  1.00  0.00    +0.000 OA
ATOM     19  H   UNL     1      -3.877  -4.678  -0.619  1.00  0.00    +0.000 HD
ENDBRANCH  15  18
ENDBRANCH  11  12
BRANCH   1  21
ATOM     20  C   UNL     1       3.120  -2.554   1.175  1.00  0.00    +0.000 C 
ATOM     21  O   UNL     1       3.664  -1.314   0.735  1.00  0.00    +0.000 OA
ENDBRANCH   1  21
BRANCH   6  22
ATOM     22  O   UNL     1       4.682   0.933  -0.278  1.00  0.00    +0.000 OA
ATOM     23  H   UNL     1       5.034   0.082   0.050  1.00  0.00    +0.000 HD
ENDBRANCH   6  22
TORSDOF 4
