REMARK  Name = /srv/my_project/app/compsite/backup/Dave/CORINA_stuff/newPDBs/SANC00120.pdb
AUTHORGENERATED BY OPEN BABEL 2.3.2
REMARK  1 active torsions:
REMARK  status: ('A' for Active; 'I' for Inactive)
REMARK    1  A    between atoms: O_1  and  C_2
REMARK                            x       y       z     vdW  Elec       q    Type
REMARK                         _______ _______ _______ _____ _____    ______ ____
ROOT
ATOM      1  C   UNL     1      -2.964   1.929  -0.487  1.00  0.00    +0.000 C 
ATOM      2  C   UNL     1      -2.389   1.382  -1.776  1.00  0.00    +0.000 C 
ATOM      3  C   UNL     1      -1.735   0.209  -1.850  1.00  0.00    +0.000 C 
ATOM      4  C   UNL     1      -1.534  -0.732  -0.664  1.00  0.00    +0.000 C 
ATOM      5  C   UNL     1      -2.307  -0.262   0.566  1.00  0.00    +0.000 C 
ATOM      6  C   UNL     1      -2.949   0.917   0.639  1.00  0.00    +0.000 C 
ATOM      7 BR   UNL     1      -3.899   1.404   2.179  1.00  0.00    +0.000 Br
ATOM      8  C   UNL     1      -2.170  -2.085  -1.124  1.00  0.00    +0.000 C 
ATOM      9  C   UNL     1      -1.659  -3.275  -0.322  1.00  0.00    +0.000 C 
ATOM     10  N   UNL     1      -0.216  -3.271  -0.404  1.00  0.00    +0.000 N 
ATOM     11  C   UNL     1       0.517  -2.104  -0.206  1.00  0.00    +0.000 C 
ATOM     12  C   UNL     1      -0.048  -0.870  -0.304  1.00  0.00    +0.000 C 
ATOM     13  C   UNL     1       0.751   0.392  -0.046  1.00  0.00    +0.000 C 
ATOM     14  N   UNL     1       0.346   1.616  -0.132  1.00  0.00    +0.000 NA
ATOM     15  C   UNL     1       1.355   2.722  -0.032  1.00  0.00    +0.000 C 
ATOM     16  C   UNL     1       2.539   2.499   0.936  1.00  0.00    +0.000 C 
ATOM     17  C   UNL     1       3.012   1.103   0.819  1.00  0.00    +0.000 A 
ATOM     18  C   UNL     1       2.107   0.138   0.355  1.00  0.00    +0.000 A 
ATOM     19  C   UNL     1       2.695  -1.092   0.441  1.00  0.00    +0.000 A 
ATOM     20  C   UNL     1       1.992  -2.302   0.162  1.00  0.00    +0.000 C 
ATOM     21  O   UNL     1       2.482  -3.424   0.246  1.00  0.00    +0.000 OA
ATOM     22  N   UNL     1       3.984  -0.904   0.867  1.00  0.00    +0.000 N 
ATOM     23  H   UNL     1       4.664  -1.637   1.026  1.00  0.00    +0.000 HD
ATOM     24  C   UNL     1       4.176   0.435   1.117  1.00  0.00    +0.000 A 
ATOM     25 BR   UNL     1       5.776   1.189   1.800  1.00  0.00    +0.000 Br
ATOM     26 BR   UNL     1      -2.618   2.460  -3.289  1.00  0.00    +0.000 Br
ATOM     27  H   UNL     1       0.270  -4.103  -0.058  1.00  0.00    +0.000 HD
ENDROOT
BRANCH   1  28
ATOM     28  O   UNL     1      -2.176   3.050  -0.084  1.00  0.00    +0.000 OA
ATOM     29  H   UNL     1      -1.257   2.709  -0.041  1.00  0.00    +0.000 HD
ENDBRANCH   1  28
TORSDOF 1
