REMARK  Name = 
REMARK  14 active torsions:
REMARK  status: ('A' for Active; 'I' for Inactive)
REMARK    1  A    between atoms: C_1  and  C_2
REMARK    2  A    between atoms: C_2  and  C_3
REMARK    3  A    between atoms: C_3  and  C_4
REMARK    4  A    between atoms: C_5  and  C_6
REMARK    5  A    between atoms: C_7  and  C_8
REMARK    6  A    between atoms: C_8  and  C_9
REMARK    7  A    between atoms: C_9  and  C_10
REMARK    8  A    between atoms: C_10  and  C_11
REMARK    9  A    between atoms: C_11  and  O_12
REMARK   10  A    between atoms: O_12  and  C_13
REMARK   11  A    between atoms: C_19  and  C_21
REMARK   12  A    between atoms: C_21  and  C_22
REMARK   13  A    between atoms: C_22  and  O_24
REMARK   14  A    between atoms: O_24  and  C_25
REMARK                            x       y       z     vdW  Elec       q    Type
REMARK                         _______ _______ _______ _____ _____    ______ ____
ROOT
ATOM      1  C   UNL     1      -1.782   0.743   1.094  1.00  0.00    +0.000 C 
ATOM      2  C   UNL     1      -2.143   1.502   2.351  1.00  0.00    +0.000 C 
ATOM      3  C   UNL     1      -3.232   2.285   2.426  1.00  0.00    +0.000 C 
ATOM      4  C   UNL     1      -4.104   2.516   1.223  1.00  0.00    +0.000 C 
ATOM      5  O   UNL     1      -3.430   2.072   0.030  1.00  0.00    +0.000 OA
ATOM      6  O   UNL     1      -2.970   0.695   0.263  1.00  0.00    +0.000 OA
ENDROOT
BRANCH   1   7
ATOM      7  O   UNL     1      -1.431  -0.571   1.547  1.00  0.00    +0.000 OA
ATOM      8  C   UNL     1      -1.601  -1.592   0.575  1.00  0.00    +0.000 C 
ENDBRANCH   1   7
BRANCH   1   9
ATOM      9  C   UNL     1      -0.613   1.390   0.313  1.00  0.00    +0.000 C 
BRANCH   9  10
ATOM     10  C   UNL     1       0.679   1.680   1.096  1.00  0.00    +0.000 C 
BRANCH  10  11
ATOM     11  C   UNL     1       1.477   0.474   1.599  1.00  0.00    +0.000 C 
BRANCH  11  13
ATOM     12  C   UNL     1       3.330  -0.473   0.198  1.00  0.00    +0.000 C 
ATOM     13  C   UNL     1       2.024  -0.380   0.490  1.00  0.00    +0.000 C 
BRANCH  12  15
ATOM     14  C   UNL     1       5.143  -1.396  -1.162  1.00  0.00    +0.000 C 
ATOM     15  C   UNL     1       3.837  -1.307  -0.866  1.00  0.00    +0.000 C 
BRANCH  14  16
ATOM     16  C   UNL     1       5.692  -2.259  -2.262  1.00  0.00    +0.000 C 
BRANCH  16  18
ATOM     17  C   UNL     1       5.533  -0.531  -4.129  1.00  0.00    +0.000 C 
ATOM     18  C   UNL     1       6.439  -1.459  -3.332  1.00  0.00    +0.000 C 
ENDBRANCH  16  18
ENDBRANCH  14  16
ENDBRANCH  12  15
ENDBRANCH  11  13
ENDBRANCH  10  11
ENDBRANCH   9  10
ENDBRANCH   1   9
BRANCH   4  19
ATOM     19  C   UNL     1      -5.530   1.986   1.294  1.00  0.00    +0.000 C 
BRANCH  19  20
ATOM     20  C   UNL     1      -5.619   0.557   1.757  1.00  0.00    +0.000 C 
ATOM     21  O   UNL     1      -5.600   0.219   2.934  1.00  0.00    +0.000 OA
BRANCH  20  22
ATOM     22  O   UNL     1      -5.764  -0.289   0.701  1.00  0.00    +0.000 OA
ATOM     23  C   UNL     1      -5.839  -1.666   1.069  1.00  0.00    +0.000 C 
ENDBRANCH  20  22
ENDBRANCH  19  20
ENDBRANCH   4  19
TORSDOF 11
