REMARK  Name = /srv/my_project/app/compsite/backup/Dave/CORINA_stuff/newPDBs/SANC00169.pdb
AUTHORGENERATED BY OPEN BABEL 2.3.2
REMARK  7 active torsions:
REMARK  status: ('A' for Active; 'I' for Inactive)
REMARK    1  A    between atoms: C_2  and  C_3
REMARK    2  A    between atoms: C_9  and  O_11
REMARK    3  A    between atoms: O_11  and  C_12
REMARK    4  A    between atoms: C_12  and  C_13
REMARK    5  A    between atoms: C_18  and  O_20
REMARK    6  A    between atoms: C_23  and  C_24
REMARK    7  A    between atoms: C_28  and  C_29
REMARK                            x       y       z     vdW  Elec       q    Type
REMARK                         _______ _______ _______ _____ _____    ______ ____
ROOT
ATOM      1  C   UNL     1      -3.666  -0.028  -1.113  1.00  0.00    +0.000 C 
ATOM      2  C   UNL     1      -4.065   0.592   0.252  1.00  0.00    +0.000 C 
ATOM      3  C   UNL     1      -2.757   0.779   1.044  1.00  0.00    +0.000 C 
ATOM      4  C   UNL     1      -1.659   0.383   0.061  1.00  0.00    +0.000 C 
ATOM      5  C   UNL     1      -0.284  -0.008   0.623  1.00  0.00    +0.000 C 
ATOM      6  C   UNL     1       0.329   1.120   1.487  1.00  0.00    +0.000 C 
ATOM      7  C   UNL     1       1.785   0.897   1.771  1.00  0.00    +0.000 C 
ATOM      8  C   UNL     1       2.578   0.021   1.128  1.00  0.00    +0.000 C 
ATOM      9  C   UNL     1       4.034  -0.113   1.518  1.00  0.00    +0.000 C 
ATOM     10  C   UNL     1       4.965  -0.004   0.309  1.00  0.00    +0.000 C 
ATOM     11  C   UNL     1       4.559  -0.986  -0.785  1.00  0.00    +0.000 C 
ATOM     12  C   UNL     1       3.102  -0.785  -1.200  1.00  0.00    +0.000 C 
ATOM     13  C   UNL     1       2.083  -0.866  -0.024  1.00  0.00    +0.000 C 
ATOM     14  C   UNL     1       2.012  -2.323   0.495  1.00  0.00    +0.000 C 
ATOM     15  C   UNL     1       0.672  -0.375  -0.555  1.00  0.00    +0.000 C 
ATOM     16  C   UNL     1       0.023  -1.342  -1.584  1.00  0.00    +0.000 C 
ATOM     17  C   UNL     1      -1.399  -0.946  -2.013  1.00  0.00    +0.000 C 
ATOM     18  C   UNL     1      -2.309  -0.720  -0.797  1.00  0.00    +0.000 C 
ATOM     19  C   UNL     1      -2.536  -2.057  -0.045  1.00  0.00    +0.000 C 
ENDROOT
BRANCH   1  21
ATOM     20  C   UNL     1      -5.956  -1.100  -1.467  1.00  0.00    +0.000 C 
ATOM     21  C   UNL     1      -4.683  -0.885  -1.824  1.00  0.00    +0.000 C 
ENDBRANCH   1  21
BRANCH  10  22
ATOM     22  O   UNL     1       6.307  -0.293   0.697  1.00  0.00    +0.000 OA
ATOM     23  H   UNL     1       6.565   0.364   1.366  1.00  0.00    +0.000 HD
ENDBRANCH  10  22
BRANCH   6  24
ATOM     24  O   UNL     1       0.227   2.375   0.788  1.00  0.00    +0.000 OA
BRANCH  24  25
ATOM     25  C   UNL     1       0.044   3.482   1.554  1.00  0.00    +0.000 C 
ATOM     26  C   UNL     1      -0.059   4.693   0.678  1.00  0.00    +0.000 C 
ATOM     27  O   UNL     1      -0.028   3.507   2.774  1.00  0.00    +0.000 OA
ENDBRANCH  24  25
ENDBRANCH   6  24
TORSDOF 4
