REMARK  Name = SANCDB_00824_minRM1.pdb
AUTHORGENERATED BY OPEN BABEL 2.3.2
REMARK  4 active torsions:
REMARK  status: ('A' for Active; 'I' for Inactive)
REMARK    1  A    between atoms: C_3  and  O_20
REMARK    2  A    between atoms: C_6  and  C_7
REMARK    3  A    between atoms: C_12  and  O_19
REMARK    4  A    between atoms: C_14  and  O_18
REMARK                            x       y       z     vdW  Elec       q    Type
REMARK                         _______ _______ _______ _____ _____    ______ ____
ROOT
ATOM      1  C   UNL     1       0.470  -0.463  -0.328  1.00  0.00    +0.000 A 
ATOM      2  C   UNL     1      -0.134  -1.441  -1.018  1.00  0.00    +0.000 A 
ATOM      3  C   UNL     1      -1.600  -1.447  -1.111  1.00  0.00    +0.000 A 
ATOM      4  O   UNL     1      -2.204  -2.321  -1.724  1.00  0.00    +0.000 OA
ATOM      5  C   UNL     1      -2.317  -0.359  -0.436  1.00  0.00    +0.000 A 
ATOM      6  C   UNL     1      -3.714  -0.272  -0.462  1.00  0.00    +0.000 A 
ATOM      7  C   UNL     1      -4.364   0.774   0.188  1.00  0.00    +0.000 A 
ATOM      8  C   UNL     1      -3.606   1.729   0.862  1.00  0.00    +0.000 A 
ATOM      9  C   UNL     1      -2.216   1.652   0.894  1.00  0.00    +0.000 A 
ATOM     10  C   UNL     1      -1.571   0.602   0.241  1.00  0.00    +0.000 A 
ATOM     11  O   UNL     1      -0.200   0.575   0.303  1.00  0.00    +0.000 OA
ENDROOT
BRANCH   1  17
ATOM     12  C   UNL     1       2.596   0.842  -0.326  1.00  0.00    +0.000 A 
ATOM     13  C   UNL     1       3.986   0.933  -0.204  1.00  0.00    +0.000 A 
ATOM     14  C   UNL     1       4.726  -0.216   0.047  1.00  0.00    +0.000 A 
ATOM     15  C   UNL     1       4.099  -1.449   0.180  1.00  0.00    +0.000 A 
ATOM     16  C   UNL     1       2.710  -1.538   0.058  1.00  0.00    +0.000 A 
ATOM     17  C   UNL     1       1.940  -0.394  -0.205  1.00  0.00    +0.000 A 
BRANCH  14  18
ATOM     18  O   UNL     1       6.082  -0.177   0.173  1.00  0.00    +0.000 OA
ATOM     19  H   UNL     1       6.378   0.742   0.065  1.00  0.00    +0.000 HD
ENDBRANCH  14  18
ENDBRANCH   1  17
BRANCH   8  20
ATOM     20  O   UNL     1      -4.197   2.772   1.512  1.00  0.00    +0.000 OA
ATOM     21  H   UNL     1      -5.161   2.697   1.413  1.00  0.00    +0.000 HD
ENDBRANCH   8  20
BRANCH   6  22
ATOM     22  O   UNL     1      -4.505  -1.182  -1.110  1.00  0.00    +0.000 OA
ATOM     23  H   UNL     1      -3.921  -1.859  -1.521  1.00  0.00    +0.000 HD
ENDBRANCH   6  22
TORSDOF 4
