REMARK  Name = SANCDB_00744_minRM1.pdb
AUTHORGENERATED BY OPEN BABEL 2.3.2
REMARK  10 active torsions:
REMARK  status: ('A' for Active; 'I' for Inactive)
REMARK    1  A    between atoms: O_1  and  C_2
REMARK    2  A    between atoms: C_2  and  C_4
REMARK    3  A    between atoms: C_7  and  C_8
REMARK    4  A    between atoms: C_9  and  C_10
REMARK    5  A    between atoms: C_16  and  C_17
REMARK    6  A    between atoms: C_20  and  O_21
REMARK    7  A    between atoms: C_22  and  C_23
REMARK    8  A    between atoms: C_22  and  C_24
REMARK    9  A    between atoms: C_28  and  C_29
REMARK   10  A    between atoms: C_30  and  C_31
REMARK                            x       y       z     vdW  Elec       q    Type
REMARK                         _______ _______ _______ _____ _____    ______ ____
ROOT
ATOM      1  C   UNL     1      -3.858   1.134   0.252  1.00  0.00    +0.000 C 
ATOM      2  C   UNL     1      -5.373   0.950  -0.054  1.00  0.00    +0.000 C 
ATOM      3  C   UNL     1      -5.950  -0.280   0.632  1.00  0.00    +0.000 C 
ATOM      4  C   UNL     1      -5.303  -1.571   0.107  1.00  0.00    +0.000 C 
ATOM      5  C   UNL     1      -6.138  -2.144  -1.049  1.00  0.00    +0.000 C 
ATOM      6  C   UNL     1      -3.814  -1.372  -0.326  1.00  0.00    +0.000 C 
ATOM      7  C   UNL     1      -3.086  -2.722  -0.240  1.00  0.00    +0.000 C 
ATOM      8  C   UNL     1      -3.142  -0.236   0.523  1.00  0.00    +0.000 C 
ATOM      9  C   UNL     1      -1.564  -0.163   0.469  1.00  0.00    +0.000 C 
ATOM     10  C   UNL     1      -1.001   0.202   1.851  1.00  0.00    +0.000 C 
ATOM     11  C   UNL     1       0.500  -0.080   1.960  1.00  0.00    +0.000 C 
ATOM     12  C   UNL     1       1.253  -0.065   0.607  1.00  0.00    +0.000 C 
ATOM     13  C   UNL     1       2.838  -0.217   0.755  1.00  0.00    +0.000 C 
ATOM     14  C   UNL     1       3.451   0.842   1.704  1.00  0.00    +0.000 C 
ATOM     15  C   UNL     1       3.136  -1.625   1.384  1.00  0.00    +0.000 C 
ATOM     16  C   UNL     1       4.253  -2.427   0.707  1.00  0.00    +0.000 C 
ATOM     17  C   UNL     1       5.441  -1.573   0.278  1.00  0.00    +0.000 C 
ATOM     18  C   UNL     1       5.031  -0.467  -0.749  1.00  0.00    +0.000 C 
ATOM     19  C   UNL     1       5.913   0.792  -0.617  1.00  0.00    +0.000 C 
ATOM     20  C   UNL     1       5.319  -1.047  -2.165  1.00  0.00    +0.000 C 
ATOM     21  C   UNL     1       3.481  -0.158  -0.672  1.00  0.00    +0.000 C 
ATOM     22  C   UNL     1       3.054   1.117  -1.426  1.00  0.00    +0.000 C 
ATOM     23  C   UNL     1       1.540   1.127  -1.636  1.00  0.00    +0.000 C 
ATOM     24  C   UNL     1       0.692   1.069  -0.329  1.00  0.00    +0.000 C 
ATOM     25  C   UNL     1       0.852   2.466   0.340  1.00  0.00    +0.000 C 
ATOM     26  C   UNL     1      -0.909   0.737  -0.653  1.00  0.00    +0.000 C 
ATOM     27  C   UNL     1      -1.033  -0.062  -1.982  1.00  0.00    +0.000 C 
ATOM     28  C   UNL     1      -1.722   2.047  -0.819  1.00  0.00    +0.000 C 
ATOM     29  C   UNL     1      -3.227   1.849  -0.962  1.00  0.00    +0.000 C 
ENDROOT
BRANCH   1  30
ATOM     30  C   UNL     1      -3.811   2.000   1.520  1.00  0.00    +0.000 C 
ATOM     31  O   UNL     1      -3.824   1.602   2.674  1.00  0.00    +0.000 OA
BRANCH  30  32
ATOM     32  O   UNL     1      -3.839   3.327   1.287  1.00  0.00    +0.000 OA
ATOM     33  H   UNL     1      -3.844   3.720   2.185  1.00  0.00    +0.000 HD
ENDBRANCH  30  32
ENDBRANCH   1  30
BRANCH  17  34
ATOM     34  O   UNL     1       6.050  -1.052   1.456  1.00  0.00    +0.000 OA
ATOM     35  H   UNL     1       6.935  -0.730   1.217  1.00  0.00    +0.000 HD
ENDBRANCH  17  34
TORSDOF 3
