REMARK  Name = /srv/my_project/app/compsite/backup/Dave/CORINA_stuff/newPDBs/SANC00611.pdb
AUTHORGENERATED BY OPEN BABEL 2.3.2
REMARK  5 active torsions:
REMARK  status: ('A' for Active; 'I' for Inactive)
REMARK    1  A    between atoms: O_1  and  C_2
REMARK    2  A    between atoms: C_5  and  C_6
REMARK    3  A    between atoms: C_7  and  C_8
REMARK    4  A    between atoms: C_10  and  O_11
REMARK    5  A    between atoms: C_13  and  O_14
REMARK                            x       y       z     vdW  Elec       q    Type
REMARK                         _______ _______ _______ _____ _____    ______ ____
ROOT
ATOM      1  C   UNL     1      -0.532  -0.031   0.387  1.00  0.00    +0.000 C 
ATOM      2  C   UNL     1       0.416  -0.007  -0.563  1.00  0.00    +0.000 C 
ENDROOT
BRANCH   1   6
ATOM      3  C   UNL     1      -4.735  -0.215  -0.327  1.00  0.00    +0.000 A 
ATOM      4  C   UNL     1      -3.877  -0.935  -1.149  1.00  0.00    +0.000 A 
ATOM      5  C   UNL     1      -2.498  -0.880  -0.931  1.00  0.00    +0.000 A 
ATOM      6  C   UNL     1      -1.973  -0.094   0.104  1.00  0.00    +0.000 A 
ATOM      7  C   UNL     1      -2.857   0.612   0.933  1.00  0.00    +0.000 A 
ATOM      8  C   UNL     1      -4.237   0.558   0.716  1.00  0.00    +0.000 A 
BRANCH   3   9
ATOM      9  O   UNL     1      -6.072  -0.299  -0.576  1.00  0.00    +0.000 OA
ATOM     10  H   UNL     1      -6.543   0.251   0.071  1.00  0.00    +0.000 HD
ENDBRANCH   3   9
ENDBRANCH   1   6
BRANCH   2  11
ATOM     11  C   UNL     1       1.855   0.056  -0.270  1.00  0.00    +0.000 A 
ATOM     12  C   UNL     1       2.734  -0.745  -1.013  1.00  0.00    +0.000 A 
ATOM     13  C   UNL     1       4.105  -0.684  -0.770  1.00  0.00    +0.000 A 
ATOM     14  C   UNL     1       4.620   0.172   0.196  1.00  0.00    +0.000 A 
ATOM     15  C   UNL     1       3.751   0.977   0.920  1.00  0.00    +0.000 A 
ATOM     16  C   UNL     1       2.376   0.931   0.695  1.00  0.00    +0.000 A 
BRANCH  13  17
ATOM     17  O   UNL     1       4.984  -1.458  -1.469  1.00  0.00    +0.000 OA
ATOM     18  H   UNL     1       4.488  -2.010  -2.095  1.00  0.00    +0.000 HD
ENDBRANCH  13  17
BRANCH  15  19
ATOM     19  O   UNL     1       4.289   1.815   1.853  1.00  0.00    +0.000 OA
ATOM     20  H   UNL     1       3.573   2.323   2.267  1.00  0.00    +0.000 HD
ENDBRANCH  15  19
ENDBRANCH   2  11
TORSDOF 5
