REMARK  Name = /srv/my_project/app/compsite/backup/Dave/CORINA_stuff/newPDBs/SANC00235.pdb
AUTHORGENERATED BY OPEN BABEL 2.3.2
REMARK  13 active torsions:
REMARK  status: ('A' for Active; 'I' for Inactive)
REMARK    1  A    between atoms: C_1  and  C_2
REMARK    2  A    between atoms: C_3  and  C_18
REMARK    3  A    between atoms: C_4  and  C_17
REMARK    4  A    between atoms: C_9  and  C_15
REMARK    5  A    between atoms: C_9  and  C_16
REMARK    6  A    between atoms: C_11  and  O_14
REMARK    7  A    between atoms: C_18  and  C_19
REMARK    8  A    between atoms: C_19  and  C_20
REMARK    9  A    between atoms: C_22  and  C_38
REMARK   10  A    between atoms: C_27  and  C_36
REMARK   11  A    between atoms: C_27  and  C_37
REMARK   12  A    between atoms: C_33  and  C_34
REMARK   13  A    between atoms: C_33  and  O_35
REMARK                            x       y       z     vdW  Elec       q    Type
REMARK                         _______ _______ _______ _____ _____    ______ ____
ROOT
ATOM      1  C   UNL     1      -0.794   0.117  -0.946  1.00  0.00    +0.000 C 
ENDROOT
BRANCH   1   4
ATOM      2  C   UNL     1      -1.022  -2.840  -1.717  1.00  0.00    +0.000 C 
ATOM      3  C   UNL     1      -2.045  -2.062  -0.930  1.00  0.00    +0.000 C 
ATOM      4  C   UNL     1      -2.002  -0.758  -0.559  1.00  0.00    +0.000 C 
ATOM      5  C   UNL     1      -3.172  -0.088   0.246  1.00  0.00    +0.000 C 
ATOM      6  C   UNL     1      -3.510   1.288  -0.381  1.00  0.00    +0.000 C 
ATOM      7  C   UNL     1      -4.560   2.092   0.365  1.00  0.00    +0.000 C 
ATOM      8  C   UNL     1      -5.553   1.242   1.111  1.00  0.00    +0.000 C 
ATOM      9  O   UNL     1      -6.184   1.751   2.042  1.00  0.00    +0.000 OA
ATOM     10  C   UNL     1      -5.805  -0.199   0.622  1.00  0.00    +0.000 C 
ATOM     11  C   UNL     1      -4.484  -0.907   0.210  1.00  0.00    +0.000 C 
ATOM     12  C   UNL     1      -4.476  -2.199  -0.170  1.00  0.00    +0.000 C 
ATOM     13  C   UNL     1      -3.233  -2.886  -0.591  1.00  0.00    +0.000 C 
ATOM     14  O   UNL     1      -3.259  -4.109  -0.719  1.00  0.00    +0.000 OA
ATOM     15  C   UNL     1      -6.517  -0.942   1.778  1.00  0.00    +0.000 C 
ATOM     16  C   UNL     1      -6.767  -0.072  -0.576  1.00  0.00    +0.000 C 
ATOM     17  C   UNL     1      -2.745   0.031   1.729  1.00  0.00    +0.000 C 
BRANCH  12  18
ATOM     18  O   UNL     1      -5.618  -2.977  -0.198  1.00  0.00    +0.000 OA
ATOM     19  H   UNL     1      -5.305  -3.880  -0.424  1.00  0.00    +0.000 HD
ENDBRANCH  12  18
ENDBRANCH   1   4
BRANCH   1  20
ATOM     20  C   UNL     1       0.012   0.696   0.228  1.00  0.00    +0.000 C 
BRANCH  20  21
ATOM     21  C   UNL     1       1.500   1.118   0.012  1.00  0.00    +0.000 C 
ATOM     22  C   UNL     1       2.554  -0.071   0.185  1.00  0.00    +0.000 C 
ATOM     23  C   UNL     1       2.795  -0.375   1.702  1.00  0.00    +0.000 C 
ATOM     24  C   UNL     1       3.849   0.498   2.372  1.00  0.00    +0.000 C 
ATOM     25  C   UNL     1       5.253  -0.060   2.217  1.00  0.00    +0.000 C 
ATOM     26  O   UNL     1       5.982  -0.133   3.213  1.00  0.00    +0.000 OA
ATOM     27  C   UNL     1       5.789  -0.431   0.801  1.00  0.00    +0.000 C 
ATOM     28  O   UNL     1       4.875  -0.670  -0.267  1.00  0.00    +0.000 OA
ATOM     29  C   UNL     1       3.890   0.335  -0.491  1.00  0.00    +0.000 C 
ATOM     30  C   UNL     1       3.726   0.543  -2.001  1.00  0.00    +0.000 C 
ATOM     31  C   UNL     1       2.445   1.299  -2.378  1.00  0.00    +0.000 C 
ATOM     32  C   UNL     1       1.823   2.067  -1.201  1.00  0.00    +0.000 C 
ATOM     33  C   UNL     1       0.671   2.959  -1.675  1.00  0.00    +0.000 C 
ATOM     34  C   UNL     1       6.540  -1.767   0.945  1.00  0.00    +0.000 C 
ATOM     35  C   UNL     1       6.801   0.646   0.378  1.00  0.00    +0.000 C 
ATOM     36  C   UNL     1       2.057  -1.410  -0.418  1.00  0.00    +0.000 C 
BRANCH  32  37
ATOM     37  O   UNL     1       2.825   2.991  -0.724  1.00  0.00    +0.000 OA
ATOM     38  H   UNL     1       3.073   3.583  -1.457  1.00  0.00    +0.000 HD
ENDBRANCH  32  37
ENDBRANCH  20  21
ENDBRANCH   1  20
TORSDOF 5
