REMARK  Name = /srv/my_project/app/compsite/backup/Dave/CORINA_stuff/newPDBs/SANC00513.pdb
AUTHORGENERATED BY OPEN BABEL 2.3.2
REMARK  7 active torsions:
REMARK  status: ('A' for Active; 'I' for Inactive)
REMARK    1  A    between atoms: C_1  and  O_2
REMARK    2  A    between atoms: O_2  and  C_3
REMARK    3  A    between atoms: C_5  and  C_6
REMARK    4  A    between atoms: C_6  and  C_7
REMARK    5  A    between atoms: C_13  and  O_14
REMARK    6  A    between atoms: C_16  and  O_17
REMARK    7  A    between atoms: C_23  and  O_24
REMARK                            x       y       z     vdW  Elec       q    Type
REMARK                         _______ _______ _______ _____ _____    ______ ____
ROOT
ATOM      1  C   UNL     1       0.788   2.012  -0.212  1.00  0.00    +0.000 C 
ATOM      2  C   UNL     1       1.399   1.270  -1.389  1.00  0.00    +0.000 C 
ATOM      3  O   UNL     1       2.764   0.937  -1.115  1.00  0.00    +0.000 OA
ATOM      4  C   UNL     1       2.865   0.103  -0.030  1.00  0.00    +0.000 A 
ATOM      5  C   UNL     1       3.964  -0.759  -0.032  1.00  0.00    +0.000 A 
ATOM      6  C   UNL     1       4.127  -1.652   1.020  1.00  0.00    +0.000 A 
ATOM      7  C   UNL     1       3.216  -1.693   2.070  1.00  0.00    +0.000 A 
ATOM      8  C   UNL     1       2.131  -0.812   2.080  1.00  0.00    +0.000 A 
ATOM      9  C   UNL     1       1.956   0.107   1.037  1.00  0.00    +0.000 A 
ATOM     10  C   UNL     1       0.877   1.135   1.025  1.00  0.00    +0.000 C 
ATOM     11  O   UNL     1       0.151   1.329   1.996  1.00  0.00    +0.000 OA
ENDROOT
BRANCH   6  12
ATOM     12  O   UNL     1       5.175  -2.523   1.058  1.00  0.00    +0.000 OA
ATOM     13  H   UNL     1       5.729  -2.387   0.270  1.00  0.00    +0.000 HD
ENDBRANCH   6  12
BRANCH   8  14
ATOM     14  O   UNL     1       1.245  -0.879   3.117  1.00  0.00    +0.000 OA
ATOM     15  H   UNL     1       1.574  -1.490   3.796  1.00  0.00    +0.000 HD
ENDBRANCH   8  14
BRANCH   1  16
ATOM     16  C   UNL     1      -0.639   2.516  -0.490  1.00  0.00    +0.000 C 
BRANCH  16  19
ATOM     17  C   UNL     1      -3.095  -0.409  -0.585  1.00  0.00    +0.000 A 
ATOM     18  C   UNL     1      -2.230   0.579  -0.113  1.00  0.00    +0.000 A 
ATOM     19  C   UNL     1      -1.607   1.472  -1.004  1.00  0.00    +0.000 A 
ATOM     20  C   UNL     1      -1.883   1.376  -2.377  1.00  0.00    +0.000 A 
ATOM     21  C   UNL     1      -2.754   0.398  -2.854  1.00  0.00    +0.000 A 
ATOM     22  C   UNL     1      -3.346  -0.482  -1.958  1.00  0.00    +0.000 A 
BRANCH  17  24
ATOM     23  C   UNL     1      -3.445  -1.344   1.570  1.00  0.00    +0.000 C 
ATOM     24  O   UNL     1      -3.747  -1.344   0.178  1.00  0.00    +0.000 OA
ENDBRANCH  17  24
BRANCH  22  25
ATOM     25  O   UNL     1      -4.193  -1.437  -2.452  1.00  0.00    +0.000 OA
ATOM     26  H   UNL     1      -4.500  -1.927  -1.664  1.00  0.00    +0.000 HD
ENDBRANCH  22  25
ENDBRANCH  16  19
ENDBRANCH   1  16
TORSDOF 6
