REMARK  Name = /srv/my_project/app/compsite/backup/Dave/CORINA_stuff/newPDBs/SANC00410.pdb
AUTHORGENERATED BY OPEN BABEL 2.3.2
REMARK  10 active torsions:
REMARK  status: ('A' for Active; 'I' for Inactive)
REMARK    1  A    between atoms: C_2  and  C_3
REMARK    2  A    between atoms: C_9  and  O_10
REMARK    3  A    between atoms: C_15  and  O_16
REMARK    4  A    between atoms: C_18  and  C_19
REMARK    5  A    between atoms: C_19  and  O_20
REMARK    6  A    between atoms: C_24  and  C_26
REMARK    7  A    between atoms: C_26  and  O_27
REMARK    8  A    between atoms: C_28  and  O_30
REMARK    9  A    between atoms: C_31  and  O_33
REMARK   10  A    between atoms: C_34  and  O_36
REMARK                            x       y       z     vdW  Elec       q    Type
REMARK                         _______ _______ _______ _____ _____    ______ ____
ROOT
ATOM      1  C   UNL     1      -0.379   0.574  -0.186  1.00  0.00    +0.000 C 
ATOM      2  C   UNL     1      -0.733   1.769   0.717  1.00  0.00    +0.000 A 
ATOM      3  C   UNL     1       0.034   2.218   1.799  1.00  0.00    +0.000 A 
ATOM      4  C   UNL     1      -0.327   3.373   2.499  1.00  0.00    +0.000 A 
ATOM      5  C   UNL     1      -1.471   4.088   2.147  1.00  0.00    +0.000 A 
ATOM      6  C   UNL     1      -2.280   3.630   1.109  1.00  0.00    +0.000 A 
ATOM      7  C   UNL     1      -1.923   2.476   0.404  1.00  0.00    +0.000 A 
ATOM      8  C   UNL     1      -2.845   1.855  -0.594  1.00  0.00    +0.000 C 
ATOM      9  O   UNL     1      -3.640   2.470  -1.293  1.00  0.00    +0.000 OA
ATOM     10  C   UNL     1      -2.831   0.373  -0.643  1.00  0.00    +0.000 A 
ATOM     11  C   UNL     1      -4.004  -0.335  -0.915  1.00  0.00    +0.000 A 
ATOM     12  C   UNL     1      -4.027  -1.717  -0.775  1.00  0.00    +0.000 A 
ATOM     13  C   UNL     1      -2.880  -2.396  -0.342  1.00  0.00    +0.000 A 
ATOM     14  C   UNL     1      -1.699  -1.672  -0.083  1.00  0.00    +0.000 A 
ATOM     15  C   UNL     1      -1.640  -0.289  -0.287  1.00  0.00    +0.000 A 
ENDROOT
BRANCH   1  16
ATOM     16  C   UNL     1       0.990  -0.165   0.034  1.00  0.00    +0.000 C 
ATOM     17  O   UNL     1       2.025   0.811   0.306  1.00  0.00    +0.000 OA
ATOM     18  C   UNL     1       3.379   0.332   0.379  1.00  0.00    +0.000 C 
ATOM     19  C   UNL     1       3.540  -1.199   0.295  1.00  0.00    +0.000 C 
ATOM     20  C   UNL     1       2.692  -1.816  -0.826  1.00  0.00    +0.000 C 
ATOM     21  C   UNL     1       1.485  -0.942  -1.211  1.00  0.00    +0.000 C 
BRANCH  19  22
ATOM     22  O   UNL     1       3.109  -1.786   1.538  1.00  0.00    +0.000 OA
ATOM     23  H   UNL     1       3.706  -1.459   2.236  1.00  0.00    +0.000 HD
ENDBRANCH  19  22
BRANCH  20  24
ATOM     24  O   UNL     1       3.468  -2.034  -2.015  1.00  0.00    +0.000 OA
ATOM     25  H   UNL     1       4.155  -2.689  -1.790  1.00  0.00    +0.000 HD
ENDBRANCH  20  24
BRANCH  21  26
ATOM     26  O   UNL     1       0.523  -1.764  -1.865  1.00  0.00    +0.000 OA
ATOM     27  H   UNL     1       0.999  -2.189  -2.605  1.00  0.00    +0.000 HD
ENDBRANCH  21  26
BRANCH  18  28
ATOM     28  C   UNL     1       4.207   1.062  -0.690  1.00  0.00    +0.000 C 
BRANCH  28  29
ATOM     29  O   UNL     1       5.588   0.752  -0.555  1.00  0.00    +0.000 OA
ATOM     30  H   UNL     1       6.059   1.262  -1.238  1.00  0.00    +0.000 HD
ENDBRANCH  28  29
ENDBRANCH  18  28
ENDBRANCH   1  16
BRANCH   6  31
ATOM     31  O   UNL     1      -3.440   4.290   0.829  1.00  0.00    +0.000 OA
ATOM     32  H   UNL     1      -3.501   5.097   1.364  1.00  0.00    +0.000 HD
ENDBRANCH   6  31
BRANCH  11  33
ATOM     33  O   UNL     1      -5.164   0.277  -1.303  1.00  0.00    +0.000 OA
ATOM     34  H   UNL     1      -4.961   1.231  -1.443  1.00  0.00    +0.000 HD
ENDBRANCH  11  33
BRANCH  13  35
ATOM     35  C   UNL     1      -2.890  -3.893  -0.179  1.00  0.00    +0.000 C 
BRANCH  35  36
ATOM     36  O   UNL     1      -1.942  -4.505  -1.046  1.00  0.00    +0.000 OA
ATOM     37  H   UNL     1      -1.649  -3.832  -1.686  1.00  0.00    +0.000 HD
ENDBRANCH  35  36
ENDBRANCH  13  35
TORSDOF 10
