REMARK  Name = /srv/my_project/app/compsite/backup/Dave/CORINA_stuff/newPDBs/SANC00655.pdb
AUTHORGENERATED BY OPEN BABEL 2.3.2
REMARK  0 active torsions:
REMARK  status: ('A' for Active; 'I' for Inactive)
REMARK                            x       y       z     vdW  Elec       q    Type
REMARK                         _______ _______ _______ _____ _____    ______ ____
ROOT
ATOM      1  C   UNL     1      -2.595   2.577  -0.039  1.00  0.00    +0.000 A 
ATOM      2  C   UNL     1      -3.612   1.612  -0.090  1.00  0.00    +0.000 A 
ATOM      3  C   UNL     1      -3.253   0.255  -0.123  1.00  0.00    +0.000 A 
ATOM      4  C   UNL     1      -3.956  -0.982  -0.175  1.00  0.00    +0.000 A 
ATOM      5  C   UNL     1      -3.023  -2.000  -0.186  1.00  0.00    +0.000 A 
ATOM      6  N   UNL     1      -1.774  -1.429  -0.141  1.00  0.00    +0.000 N 
ATOM      7  C   UNL     1      -1.905  -0.059  -0.103  1.00  0.00    +0.000 A 
ATOM      8  C   UNL     1      -0.852   0.864  -0.053  1.00  0.00    +0.000 A 
ATOM      9  C   UNL     1      -1.243   2.210  -0.021  1.00  0.00    +0.000 A 
ATOM     10  C   UNL     1       0.516   0.305  -0.040  1.00  0.00    +0.000 A 
ATOM     11  C   UNL     1       1.663   1.115   0.009  1.00  0.00    +0.000 A 
ATOM     12  C   UNL     1       2.905   0.506   0.018  1.00  0.00    +0.000 A 
ATOM     13  C   UNL     1       3.055  -0.860  -0.019  1.00  0.00    +0.000 A 
ATOM     14  C   UNL     1       1.974  -1.708  -0.068  1.00  0.00    +0.000 A 
ATOM     15  C   UNL     1       0.702  -1.121  -0.078  1.00  0.00    +0.000 A 
ATOM     16  C   UNL     1      -0.501  -2.013  -0.131  1.00  0.00    +0.000 A 
ATOM     17  O   UNL     1      -0.418  -3.235  -0.166  1.00  0.00    +0.000 OA
ATOM     18  O   UNL     1       4.361  -1.238  -0.003  1.00  0.00    +0.000 OA
ATOM     19  C   UNL     1       5.019   0.044   0.050  1.00  0.00    +0.000 C 
ATOM     20  O   UNL     1       4.099   1.157   0.064  1.00  0.00    +0.000 OA
ENDROOT
TORSDOF 0
