REMARK  Name = /srv/my_project/app/compsite/backup/Dave/CORINA_stuff/newPDBs/SANC00670.pdb
AUTHORGENERATED BY OPEN BABEL 2.3.2
REMARK  23 active torsions:
REMARK  status: ('A' for Active; 'I' for Inactive)
REMARK    1  A    between atoms: C_2  and  O_3
REMARK    2  A    between atoms: O_3  and  C_4
REMARK    3  A    between atoms: C_6  and  O_8
REMARK    4  A    between atoms: C_9  and  O_11
REMARK    5  A    between atoms: C_12  and  C_14
REMARK    6  A    between atoms: C_14  and  O_15
REMARK    7  A    between atoms: C_17  and  O_19
REMARK    8  A    between atoms: O_19  and  C_20
REMARK    9  A    between atoms: C_24  and  C_25
REMARK   10  A    between atoms: C_35  and  C_36
REMARK   11  A    between atoms: C_44  and  O_46
REMARK   12  A    between atoms: C_47  and  C_49
REMARK   13  A    between atoms: C_50  and  C_51
REMARK   14  A    between atoms: C_50  and  C_52
REMARK   15  A    between atoms: C_53  and  C_55
REMARK   16  A    between atoms: C_60  and  C_62
REMARK   17  A    between atoms: C_63  and  O_65
REMARK   18  A    between atoms: O_65  and  C_66
REMARK   19  A    between atoms: C_66  and  C_68
REMARK   20  A    between atoms: C_71  and  O_72
REMARK   21  A    between atoms: O_72  and  C_73
REMARK   22  A    between atoms: C_76  and  O_78
REMARK   23  A    between atoms: C_79  and  O_81
REMARK                            x       y       z     vdW  Elec       q    Type
REMARK                         _______ _______ _______ _____ _____    ______ ____
ROOT
ATOM      1  C   UNL     1       4.121  -3.930   0.355  1.00  0.00    +0.000 C 
ATOM      2  C   UNL     1       4.697  -5.330   0.106  1.00  0.00    +0.000 C 
ATOM      3  C   UNL     1       3.810  -6.441   0.683  1.00  0.00    +0.000 C 
ATOM      4  C   UNL     1       3.032  -5.975   1.926  1.00  0.00    +0.000 C 
ATOM      5  O   UNL     1       2.272  -4.773   1.738  1.00  0.00    +0.000 OA
ATOM      6  C   UNL     1       2.603  -3.978   0.600  1.00  0.00    +0.000 C 
ENDROOT
BRANCH   3   7
ATOM      7  O   UNL     1       2.856  -6.830  -0.322  1.00  0.00    +0.000 OA
ATOM      8  H   UNL     1       3.326  -7.351  -0.997  1.00  0.00    +0.000 HD
ENDBRANCH   3   7
BRANCH   2   9
ATOM      9  O   UNL     1       6.029  -5.358   0.661  1.00  0.00    +0.000 OA
ATOM     10  H   UNL     1       6.357  -6.275   0.592  1.00  0.00    +0.000 HD
ENDBRANCH   2   9
BRANCH   6  11
ATOM     11  O   UNL     1       2.192  -2.630   0.866  1.00  0.00    +0.000 OA
BRANCH  11  12
ATOM     12  C   UNL     1       0.865  -2.322   0.429  1.00  0.00    +0.000 C 
ATOM     13  C   UNL     1      -0.193  -2.978   1.319  1.00  0.00    +0.000 C 
ATOM     14  C   UNL     1      -1.605  -2.530   0.941  1.00  0.00    +0.000 C 
ATOM     15  C   UNL     1      -1.820  -0.989   0.947  1.00  0.00    +0.000 C 
ATOM     16  C   UNL     1      -1.768  -0.467   2.403  1.00  0.00    +0.000 C 
ATOM     17  C   UNL     1      -0.680  -0.326   0.163  1.00  0.00    +0.000 C 
ATOM     18  C   UNL     1      -0.884   0.628  -0.762  1.00  0.00    +0.000 C 
ATOM     19  C   UNL     1      -2.221   1.187  -1.129  1.00  0.00    +0.000 C 
ATOM     20  C   UNL     1      -3.338   0.813  -0.141  1.00  0.00    +0.000 C 
ATOM     21  C   UNL     1      -3.217  -0.680   0.272  1.00  0.00    +0.000 C 
ATOM     22  C   UNL     1      -4.436  -1.156   1.103  1.00  0.00    +0.000 C 
ATOM     23  C   UNL     1      -5.801  -0.782   0.493  1.00  0.00    +0.000 C 
ATOM     24  C   UNL     1      -5.882   0.715   0.178  1.00  0.00    +0.000 C 
ATOM     25  C   UNL     1      -4.716   1.061  -0.766  1.00  0.00    +0.000 C 
ATOM     26  C   UNL     1      -5.042   2.465  -1.270  1.00  0.00    +0.000 C 
ATOM     27  C   UNL     1      -6.581   2.505  -1.312  1.00  0.00    +0.000 C 
ATOM     28  O   UNL     1      -7.037   3.589  -0.515  1.00  0.00    +0.000 OA
ATOM     29  C   UNL     1      -8.444   3.784  -0.630  1.00  0.00    +0.000 C 
ATOM     30  C   UNL     1      -9.260   2.461  -0.668  1.00  0.00    +0.000 C 
ATOM     31  C   UNL     1      -8.458   1.306  -0.008  1.00  0.00    +0.000 C 
ATOM     32  C   UNL     1      -9.224  -0.023  -0.074  1.00  0.00    +0.000 C 
ATOM     33  C   UNL     1      -7.079   1.171  -0.700  1.00  0.00    +0.000 C 
ATOM     34  C   UNL     1       0.725  -0.796   0.473  1.00  0.00    +0.000 C 
BRANCH  30  35
ATOM     35  C   UNL     1     -10.607   2.664   0.007  1.00  0.00    +0.000 C 
ATOM     36  C   UNL     1     -11.823   2.745  -0.570  1.00  0.00    +0.000 C 
ATOM     37  C   UNL     1     -12.093   2.687  -2.049  1.00  0.00    +0.000 C 
ATOM     38  C   UNL     1     -13.060   2.917   0.274  1.00  0.00    +0.000 C 
ENDBRANCH  30  35
BRANCH  24  39
ATOM     39  C   UNL     1      -5.834   1.530   1.484  1.00  0.00    +0.000 C 
ATOM     40  O   UNL     1      -6.229   1.111   2.570  1.00  0.00    +0.000 OA
ENDBRANCH  24  39
BRANCH  29  41
ATOM     41  O   UNL     1      -8.697   4.536  -1.810  1.00  0.00    +0.000 OA
ATOM     42  H   UNL     1      -8.422   5.442  -1.594  1.00  0.00    +0.000 HD
ENDBRANCH  29  41
ENDBRANCH  11  12
ENDBRANCH   6  11
BRANCH   4  43
ATOM     43  C   UNL     1       3.926  -5.796   3.163  1.00  0.00    +0.000 C 
BRANCH  43  44
ATOM     44  O   UNL     1       4.726  -6.950   3.392  1.00  0.00    +0.000 OA
ATOM     45  H   UNL     1       5.188  -6.803   4.238  1.00  0.00    +0.000 HD
ENDBRANCH  43  44
ENDBRANCH   4  43
BRANCH   1  46
ATOM     46  O   UNL     1       4.425  -3.122  -0.799  1.00  0.00    +0.000 OA
BRANCH  46  47
ATOM     47  C   UNL     1       5.165  -1.942  -0.482  1.00  0.00    +0.000 C 
ATOM     48  O   UNL     1       4.874  -0.946  -1.462  1.00  0.00    +0.000 OA
ATOM     49  C   UNL     1       5.433   0.337  -1.141  1.00  0.00    +0.000 C 
ATOM     50  C   UNL     1       4.403   1.171  -0.383  1.00  0.00    +0.000 C 
ATOM     51  C   UNL     1       6.775   0.254  -0.380  1.00  0.00    +0.000 C 
ATOM     52  C   UNL     1       7.510  -1.012  -0.839  1.00  0.00    +0.000 C 
ATOM     53  C   UNL     1       6.681  -2.262  -0.494  1.00  0.00    +0.000 C 
BRANCH  53  54
ATOM     54  O   UNL     1       7.105  -2.763   0.792  1.00  0.00    +0.000 OA
ATOM     55  H   UNL     1       6.833  -3.708   0.818  1.00  0.00    +0.000 HD
ENDBRANCH  53  54
BRANCH  52  56
ATOM     56  O   UNL     1       8.816  -1.113  -0.258  1.00  0.00    +0.000 OA
ATOM     57  H   UNL     1       8.676  -1.541   0.614  1.00  0.00    +0.000 HD
ENDBRANCH  52  56
BRANCH  51  58
ATOM     58  O   UNL     1       7.551   1.427  -0.697  1.00  0.00    +0.000 OA
BRANCH  58  59
ATOM     59  C   UNL     1       8.312   1.927   0.308  1.00  0.00    +0.000 C 
ATOM     60  O   UNL     1       8.313   1.547   1.468  1.00  0.00    +0.000 OA
BRANCH  59  61
ATOM     61  C   UNL     1       9.149   3.055  -0.184  1.00  0.00    +0.000 A 
ATOM     62  C   UNL     1       9.944   3.743   0.742  1.00  0.00    +0.000 A 
ATOM     63  C   UNL     1      10.748   4.815   0.335  1.00  0.00    +0.000 A 
ATOM     64  C   UNL     1      10.765   5.208  -1.004  1.00  0.00    +0.000 A 
ATOM     65  C   UNL     1       9.974   4.521  -1.928  1.00  0.00    +0.000 A 
ATOM     66  C   UNL     1       9.169   3.450  -1.526  1.00  0.00    +0.000 A 
BRANCH  64  67
ATOM     67  O   UNL     1      11.500   6.232  -1.532  1.00  0.00    +0.000 OA
ATOM     68  C   UNL     1      12.338   6.953  -0.636  1.00  0.00    +0.000 C 
ENDBRANCH  64  67
ENDBRANCH  59  61
ENDBRANCH  58  59
ENDBRANCH  51  58
ENDBRANCH  46  47
ENDBRANCH   1  46
TORSDOF 17
