REMARK  Name = /srv/my_project/app/compsite/backup/Dave/CORINA_stuff/newPDBs/SANC00672.pdb
AUTHORGENERATED BY OPEN BABEL 2.3.2
REMARK  24 active torsions:
REMARK  status: ('A' for Active; 'I' for Inactive)
REMARK    1  A    between atoms: C_2  and  O_3
REMARK    2  A    between atoms: O_3  and  C_4
REMARK    3  A    between atoms: C_6  and  O_8
REMARK    4  A    between atoms: C_9  and  O_11
REMARK    5  A    between atoms: C_12  and  C_14
REMARK    6  A    between atoms: C_14  and  O_15
REMARK    7  A    between atoms: C_17  and  O_19
REMARK    8  A    between atoms: O_19  and  C_20
REMARK    9  A    between atoms: C_24  and  C_25
REMARK   10  A    between atoms: C_35  and  C_36
REMARK   11  A    between atoms: C_36  and  O_37
REMARK   12  A    between atoms: C_44  and  O_46
REMARK   13  A    between atoms: C_47  and  C_49
REMARK   14  A    between atoms: C_50  and  C_51
REMARK   15  A    between atoms: C_50  and  C_52
REMARK   16  A    between atoms: C_53  and  C_55
REMARK   17  A    between atoms: C_60  and  C_62
REMARK   18  A    between atoms: C_63  and  O_65
REMARK   19  A    between atoms: O_65  and  C_66
REMARK   20  A    between atoms: C_66  and  C_68
REMARK   21  A    between atoms: C_71  and  O_72
REMARK   22  A    between atoms: O_72  and  C_73
REMARK   23  A    between atoms: C_76  and  O_78
REMARK   24  A    between atoms: C_79  and  O_81
REMARK                            x       y       z     vdW  Elec       q    Type
REMARK                         _______ _______ _______ _____ _____    ______ ____
ROOT
ATOM      1  C   UNL     1       4.194   4.119   1.393  1.00  0.00    +0.000 C 
ATOM      2  C   UNL     1       4.687   5.264   2.287  1.00  0.00    +0.000 C 
ATOM      3  C   UNL     1       3.752   6.477   2.267  1.00  0.00    +0.000 C 
ATOM      4  C   UNL     1       3.053   6.677   0.909  1.00  0.00    +0.000 C 
ATOM      5  O   UNL     1       2.467   5.496   0.340  1.00  0.00    +0.000 OA
ATOM      6  C   UNL     1       2.709   4.276   1.033  1.00  0.00    +0.000 C 
ENDROOT
BRANCH   2   7
ATOM      7  O   UNL     1       6.006   5.672   1.873  1.00  0.00    +0.000 OA
ATOM      8  H   UNL     1       6.528   4.842   1.748  1.00  0.00    +0.000 HD
ENDBRANCH   2   7
BRANCH   3   9
ATOM      9  O   UNL     1       2.735   6.296   3.270  1.00  0.00    +0.000 OA
ATOM     10  H   UNL     1       3.175   6.325   4.139  1.00  0.00    +0.000 HD
ENDBRANCH   3   9
BRANCH   6  11
ATOM     11  O   UNL     1       2.379   3.185   0.157  1.00  0.00    +0.000 OA
BRANCH  11  12
ATOM     12  C   UNL     1       0.973   2.946   0.053  1.00  0.00    +0.000 C 
ATOM     13  C   UNL     1       0.743   2.252  -1.290  1.00  0.00    +0.000 C 
ATOM     14  C   UNL     1      -0.719   1.848  -1.474  1.00  0.00    +0.000 C 
ATOM     15  C   UNL     1      -1.280   0.943  -0.339  1.00  0.00    +0.000 C 
ATOM     16  C   UNL     1      -0.614  -0.451  -0.414  1.00  0.00    +0.000 C 
ATOM     17  C   UNL     1      -0.924   1.568   1.017  1.00  0.00    +0.000 C 
ATOM     18  C   UNL     1      -1.816   1.709   2.014  1.00  0.00    +0.000 C 
ATOM     19  C   UNL     1      -3.241   1.258   1.953  1.00  0.00    +0.000 C 
ATOM     20  C   UNL     1      -3.535   0.313   0.777  1.00  0.00    +0.000 C 
ATOM     21  C   UNL     1      -2.848   0.842  -0.515  1.00  0.00    +0.000 C 
ATOM     22  C   UNL     1      -3.297   0.081  -1.792  1.00  0.00    +0.000 C 
ATOM     23  C   UNL     1      -4.819  -0.141  -1.897  1.00  0.00    +0.000 C 
ATOM     24  C   UNL     1      -5.403  -0.781  -0.618  1.00  0.00    +0.000 C 
ATOM     25  C   UNL     1      -5.042   0.196   0.531  1.00  0.00    +0.000 C 
ATOM     26  C   UNL     1      -5.950  -0.213   1.678  1.00  0.00    +0.000 C 
ATOM     27  C   UNL     1      -7.288  -0.457   0.969  1.00  0.00    +0.000 C 
ATOM     28  O   UNL     1      -7.998  -1.508   1.601  1.00  0.00    +0.000 OA
ATOM     29  C   UNL     1      -9.271  -1.739   1.015  1.00  0.00    +0.000 C 
ATOM     30  C   UNL     1      -9.238  -1.833  -0.535  1.00  0.00    +0.000 C 
ATOM     31  C   UNL     1      -7.788  -1.930  -1.087  1.00  0.00    +0.000 C 
ATOM     32  C   UNL     1      -7.759  -1.950  -2.620  1.00  0.00    +0.000 C 
ATOM     33  C   UNL     1      -6.968  -0.742  -0.527  1.00  0.00    +0.000 C 
ATOM     34  C   UNL     1       0.503   2.042   1.200  1.00  0.00    +0.000 C 
BRANCH  30  35
ATOM     35  C   UNL     1     -10.192  -2.897  -1.065  1.00  0.00    +0.000 C 
ATOM     36  C   UNL     1     -10.152  -4.238  -0.927  1.00  0.00    +0.000 C 
ATOM     37  C   UNL     1     -11.209  -5.101  -1.569  1.00  0.00    +0.000 C 
ATOM     38  C   UNL     1      -9.117  -5.013  -0.159  1.00  0.00    +0.000 C 
ENDBRANCH  30  35
BRANCH  29  39
ATOM     39  O   UNL     1     -10.162  -0.701   1.415  1.00  0.00    +0.000 OA
ATOM     40  H   UNL     1     -10.276  -0.839   2.370  1.00  0.00    +0.000 HD
ENDBRANCH  29  39
BRANCH  24  41
ATOM     41  C   UNL     1      -4.819  -2.217  -0.469  1.00  0.00    +0.000 C 
BRANCH  41  42
ATOM     42  O   UNL     1      -5.300  -2.903   0.672  1.00  0.00    +0.000 OA
ATOM     43  H   UNL     1      -4.898  -3.788   0.676  1.00  0.00    +0.000 HD
ENDBRANCH  41  42
ENDBRANCH  24  41
ENDBRANCH  11  12
ENDBRANCH   6  11
BRANCH   4  44
ATOM     44  C   UNL     1       3.961   7.339  -0.145  1.00  0.00    +0.000 C 
BRANCH  44  45
ATOM     45  O   UNL     1       5.102   6.564  -0.496  1.00  0.00    +0.000 OA
ATOM     46  H   UNL     1       5.677   6.487   0.293  1.00  0.00    +0.000 HD
ENDBRANCH  44  45
ENDBRANCH   4  44
BRANCH   1  47
ATOM     47  O   UNL     1       4.398   2.887   2.118  1.00  0.00    +0.000 OA
BRANCH  47  48
ATOM     48  C   UNL     1       5.086   1.905   1.346  1.00  0.00    +0.000 C 
ATOM     49  O   UNL     1       4.625   0.612   1.721  1.00  0.00    +0.000 OA
ATOM     50  C   UNL     1       5.115  -0.424   0.867  1.00  0.00    +0.000 C 
ATOM     51  C   UNL     1       4.054  -0.744  -0.185  1.00  0.00    +0.000 C 
ATOM     52  C   UNL     1       6.487  -0.125   0.215  1.00  0.00    +0.000 C 
ATOM     53  C   UNL     1       7.349   0.741   1.159  1.00  0.00    +0.000 C 
ATOM     54  C   UNL     1       6.591   1.991   1.660  1.00  0.00    +0.000 C 
BRANCH  54  55
ATOM     55  O   UNL     1       7.164   3.201   1.121  1.00  0.00    +0.000 OA
ATOM     56  H   UNL     1       8.069   2.931   0.842  1.00  0.00    +0.000 HD
ENDBRANCH  54  55
BRANCH  53  57
ATOM     57  O   UNL     1       8.583   1.203   0.573  1.00  0.00    +0.000 OA
ATOM     58  H   UNL     1       8.721   0.747  -0.286  1.00  0.00    +0.000 HD
ENDBRANCH  53  57
BRANCH  52  59
ATOM     59  O   UNL     1       7.102  -1.412  -0.051  1.00  0.00    +0.000 OA
BRANCH  59  60
ATOM     60  C   UNL     1       8.093  -1.446  -0.971  1.00  0.00    +0.000 C 
ATOM     61  O   UNL     1       8.557  -0.461  -1.524  1.00  0.00    +0.000 OA
BRANCH  60  62
ATOM     62  C   UNL     1       8.564  -2.836  -1.203  1.00  0.00    +0.000 A 
ATOM     63  C   UNL     1       7.997  -3.941  -0.555  1.00  0.00    +0.000 A 
ATOM     64  C   UNL     1       8.475  -5.233  -0.808  1.00  0.00    +0.000 A 
ATOM     65  C   UNL     1       9.522  -5.432  -1.709  1.00  0.00    +0.000 A 
ATOM     66  C   UNL     1      10.085  -4.329  -2.356  1.00  0.00    +0.000 A 
ATOM     67  C   UNL     1       9.612  -3.037  -2.108  1.00  0.00    +0.000 A 
BRANCH  65  68
ATOM     68  O   UNL     1      10.080  -6.634  -2.043  1.00  0.00    +0.000 OA
ATOM     69  C   UNL     1       9.548  -7.792  -1.412  1.00  0.00    +0.000 C 
ENDBRANCH  65  68
ENDBRANCH  60  62
ENDBRANCH  59  60
ENDBRANCH  52  59
ENDBRANCH  47  48
ENDBRANCH   1  47
TORSDOF 18
