REMARK  Name = /srv/my_project/app/compsite/backup/Dave/CORINA_stuff/newPDBs/SANC00617.pdb
AUTHORGENERATED BY OPEN BABEL 2.3.2
REMARK  33 active torsions:
REMARK  status: ('A' for Active; 'I' for Inactive)
REMARK    1  A    between atoms: C_2  and  O_3
REMARK    2  A    between atoms: O_3  and  C_4
REMARK    3  A    between atoms: C_15  and  O_17
REMARK    4  A    between atoms: O_17  and  C_18
REMARK    5  A    between atoms: C_21  and  C_23
REMARK    6  A    between atoms: C_23  and  O_24
REMARK    7  A    between atoms: C_25  and  O_27
REMARK    8  A    between atoms: C_28  and  O_30
REMARK    9  A    between atoms: C_31  and  O_33
REMARK   10  A    between atoms: C_36  and  C_37
REMARK   11  A    between atoms: C_42  and  C_43
REMARK   12  A    between atoms: C_44  and  O_45
REMARK   13  A    between atoms: C_44  and  C_46
REMARK   14  A    between atoms: C_46  and  C_48
REMARK   15  A    between atoms: C_46  and  C_49
REMARK   16  A    between atoms: C_49  and  C_51
REMARK   17  A    between atoms: C_51  and  C_52
REMARK   18  A    between atoms: C_52  and  C_53
REMARK   19  A    between atoms: C_53  and  C_54
REMARK   20  A    between atoms: C_53  and  C_55
REMARK   21  A    between atoms: C_58  and  O_60
REMARK   22  A    between atoms: C_61  and  O_63
REMARK   23  A    between atoms: O_63  and  C_64
REMARK   24  A    between atoms: C_68  and  O_70
REMARK   25  A    between atoms: C_71  and  O_73
REMARK   26  A    between atoms: C_74  and  O_76
REMARK   27  A    between atoms: O_76  and  C_77
REMARK   28  A    between atoms: C_77  and  C_79
REMARK   29  A    between atoms: C_82  and  O_83
REMARK   30  A    between atoms: O_83  and  C_84
REMARK   31  A    between atoms: C_87  and  O_89
REMARK   32  A    between atoms: O_89  and  C_90
REMARK   33  A    between atoms: C_90  and  C_91
REMARK                            x       y       z     vdW  Elec       q    Type
REMARK                         _______ _______ _______ _____ _____    ______ ____
ROOT
ATOM      1  C   UNL     1       0.323  -0.818  -0.270  1.00  0.00    +0.000 C 
ATOM      2  C   UNL     1      -0.826  -0.106  -1.024  1.00  0.00    +0.000 C 
ATOM      3  C   UNL     1      -2.000  -0.129  -0.057  1.00  0.00    +0.000 C 
ATOM      4  C   UNL     1      -3.399   0.148  -0.629  1.00  0.00    +0.000 C 
ATOM      5  C   UNL     1      -3.426   1.492  -1.372  1.00  0.00    +0.000 C 
ATOM      6  C   UNL     1      -4.794   2.064  -1.560  1.00  0.00    +0.000 C 
ATOM      7  C   UNL     1      -5.902   1.596  -0.961  1.00  0.00    +0.000 C 
ATOM      8  C   UNL     1      -7.216   2.328  -1.087  1.00  0.00    +0.000 C 
ATOM      9  C   UNL     1      -7.651   2.930   0.264  1.00  0.00    +0.000 C 
ATOM     10  C   UNL     1      -7.034   2.183   1.462  1.00  0.00    +0.000 C 
ATOM     11  C   UNL     1      -6.890   0.686   1.169  1.00  0.00    +0.000 C 
ATOM     12  C   UNL     1      -5.906   0.389  -0.012  1.00  0.00    +0.000 C 
ATOM     13  C   UNL     1      -6.453  -0.831  -0.789  1.00  0.00    +0.000 C 
ATOM     14  C   UNL     1      -4.446   0.120   0.526  1.00  0.00    +0.000 C 
ATOM     15  C   UNL     1      -4.307  -1.172   1.374  1.00  0.00    +0.000 C 
ATOM     16  C   UNL     1      -2.866  -1.460   1.834  1.00  0.00    +0.000 C 
ATOM     17  C   UNL     1      -1.868  -1.498   0.655  1.00  0.00    +0.000 C 
ATOM     18  C   UNL     1      -2.197  -2.701  -0.266  1.00  0.00    +0.000 C 
ATOM     19  C   UNL     1      -0.332  -1.474   1.014  1.00  0.00    +0.000 C 
ENDROOT
BRANCH  19  20
ATOM     20  C   UNL     1       0.321  -2.828   1.426  1.00  0.00    +0.000 C 
ATOM     21  C   UNL     1      -0.262  -3.435   2.703  1.00  0.00    +0.000 C 
BRANCH  20  22
ATOM     22  C   UNL     1       1.829  -2.652   1.647  1.00  0.00    +0.000 C 
ATOM     23  O   UNL     1       2.295  -1.554   1.964  1.00  0.00    +0.000 OA
BRANCH  22  24
ATOM     24  C   UNL     1       2.693  -3.899   1.500  1.00  0.00    +0.000 C 
BRANCH  24  25
ATOM     25  C   UNL     1       4.200  -3.633   1.557  1.00  0.00    +0.000 C 
BRANCH  25  26
ATOM     26  C   UNL     1       4.761  -3.302   2.955  1.00  0.00    +0.000 C 
ATOM     27  C   UNL     1       6.238  -2.910   2.835  1.00  0.00    +0.000 C 
ATOM     28  C   UNL     1       4.615  -4.471   3.930  1.00  0.00    +0.000 C 
ENDBRANCH  25  26
ENDBRANCH  24  25
ENDBRANCH  22  24
ENDBRANCH  20  22
ENDBRANCH  19  20
BRANCH  19  29
ATOM     29  O   UNL     1      -0.170  -0.535   2.103  1.00  0.00    +0.000 OA
ATOM     30  H   UNL     1       0.791  -0.508   2.311  1.00  0.00    +0.000 HD
ENDBRANCH  19  29
BRANCH   9  31
ATOM     31  O   UNL     1      -9.079   2.856   0.422  1.00  0.00    +0.000 OA
BRANCH  31  32
ATOM     32  C   UNL     1      -9.802   3.751  -0.428  1.00  0.00    +0.000 C 
ATOM     33  O   UNL     1      -9.427   5.113  -0.262  1.00  0.00    +0.000 OA
ATOM     34  C   UNL     1     -10.126   5.862   0.747  1.00  0.00    +0.000 C 
ATOM     35  C   UNL     1     -11.651   5.862   0.500  1.00  0.00    +0.000 C 
ATOM     36  C   UNL     1     -12.080   4.764  -0.478  1.00  0.00    +0.000 C 
ATOM     37  C   UNL     1     -11.305   3.490  -0.193  1.00  0.00    +0.000 C 
BRANCH  37  38
ATOM     38  O   UNL     1     -11.798   2.429  -1.032  1.00  0.00    +0.000 OA
ATOM     39  H   UNL     1     -11.234   1.654  -0.844  1.00  0.00    +0.000 HD
ENDBRANCH  37  38
BRANCH  36  40
ATOM     40  O   UNL     1     -13.492   4.536  -0.329  1.00  0.00    +0.000 OA
ATOM     41  H   UNL     1     -13.662   3.697  -0.807  1.00  0.00    +0.000 HD
ENDBRANCH  36  40
BRANCH  35  42
ATOM     42  O   UNL     1     -12.071   7.124  -0.041  1.00  0.00    +0.000 OA
ATOM     43  H   UNL     1     -13.014   7.012  -0.275  1.00  0.00    +0.000 HD
ENDBRANCH  35  42
BRANCH  34  44
ATOM     44  C   UNL     1      -9.778   5.386   2.171  1.00  0.00    +0.000 C 
BRANCH  44  45
ATOM     45  O   UNL     1      -8.386   5.561   2.430  1.00  0.00    +0.000 OA
ATOM     46  H   UNL     1      -8.208   5.188   3.310  1.00  0.00    +0.000 HD
ENDBRANCH  44  45
ENDBRANCH  34  44
ENDBRANCH  31  32
ENDBRANCH   9  31
BRANCH   1  47
ATOM     47  O   UNL     1       0.929  -1.790  -1.129  1.00  0.00    +0.000 OA
BRANCH  47  48
ATOM     48  C   UNL     1       1.753  -1.201  -2.145  1.00  0.00    +0.000 C 
ATOM     49  O   UNL     1       1.545  -1.865  -3.394  1.00  0.00    +0.000 OA
ATOM     50  C   UNL     1       1.982  -3.224  -3.385  1.00  0.00    +0.000 C 
ATOM     51  C   UNL     1       3.453  -3.356  -2.991  1.00  0.00    +0.000 C 
ATOM     52  C   UNL     1       4.098  -1.995  -2.710  1.00  0.00    +0.000 C 
ATOM     53  C   UNL     1       3.240  -1.194  -1.718  1.00  0.00    +0.000 C 
BRANCH  51  54
ATOM     54  O   UNL     1       3.558  -4.182  -1.819  1.00  0.00    +0.000 OA
ATOM     55  H   UNL     1       4.454  -4.008  -1.464  1.00  0.00    +0.000 HD
ENDBRANCH  51  54
BRANCH  53  56
ATOM     56  O   UNL     1       3.682   0.194  -1.707  1.00  0.00    +0.000 OA
BRANCH  56  57
ATOM     57  C   UNL     1       4.596   0.549  -0.765  1.00  0.00    +0.000 C 
ATOM     58  C   UNL     1       4.833   2.028  -0.822  1.00  0.00    +0.000 C 
ATOM     59  O   UNL     1       5.169  -0.208   0.003  1.00  0.00    +0.000 OA
ENDBRANCH  56  57
ENDBRANCH  53  56
BRANCH  52  60
ATOM     60  O   UNL     1       5.379  -2.262  -2.109  1.00  0.00    +0.000 OA
BRANCH  60  61
ATOM     61  C   UNL     1       6.487  -1.798  -2.884  1.00  0.00    +0.000 C 
ATOM     62  O   UNL     1       6.618  -2.574  -4.075  1.00  0.00    +0.000 OA
ATOM     63  C   UNL     1       7.241  -3.841  -3.851  1.00  0.00    +0.000 C 
ATOM     64  C   UNL     1       8.687  -3.683  -3.376  1.00  0.00    +0.000 C 
ATOM     65  C   UNL     1       8.955  -2.291  -2.789  1.00  0.00    +0.000 C 
ATOM     66  C   UNL     1       7.743  -1.829  -1.981  1.00  0.00    +0.000 C 
BRANCH  65  67
ATOM     67  O   UNL     1      10.172  -2.372  -2.026  1.00  0.00    +0.000 OA
ATOM     68  H   UNL     1       9.955  -2.297  -1.073  1.00  0.00    +0.000 HD
ENDBRANCH  65  67
BRANCH  64  69
ATOM     69  O   UNL     1       9.599  -3.903  -4.459  1.00  0.00    +0.000 OA
ATOM     70  H   UNL     1      10.483  -3.675  -4.108  1.00  0.00    +0.000 HD
ENDBRANCH  64  69
BRANCH  66  71
ATOM     71  O   UNL     1       7.950  -0.493  -1.461  1.00  0.00    +0.000 OA
BRANCH  71  72
ATOM     72  C   UNL     1       8.571  -0.430  -0.259  1.00  0.00    +0.000 C 
ATOM     73  O   UNL     1       9.069  -1.375   0.332  1.00  0.00    +0.000 OA
BRANCH  72  74
ATOM     74  C   UNL     1       8.534   0.956   0.257  1.00  0.00    +0.000 A 
ATOM     75  C   UNL     1       8.495   1.153   1.641  1.00  0.00    +0.000 A 
ATOM     76  C   UNL     1       8.437   2.449   2.167  1.00  0.00    +0.000 A 
ATOM     77  C   UNL     1       8.428   3.553   1.311  1.00  0.00    +0.000 A 
ATOM     78  C   UNL     1       8.493   3.351  -0.071  1.00  0.00    +0.000 A 
ATOM     79  C   UNL     1       8.543   2.060  -0.602  1.00  0.00    +0.000 A 
BRANCH  77  80
ATOM     80  O   UNL     1       8.367   4.865   1.692  1.00  0.00    +0.000 OA
ATOM     81  C   UNL     1       8.181   5.124   3.078  1.00  0.00    +0.000 C 
ENDBRANCH  77  80
ENDBRANCH  72  74
ENDBRANCH  71  72
ENDBRANCH  66  71
ENDBRANCH  60  61
ENDBRANCH  52  60
ENDBRANCH  47  48
ENDBRANCH   1  47
TORSDOF 26
