REMARK  Name = /srv/my_project/app/compsite/backup/Dave/CORINA_stuff/newPDBs/SANC00508.pdb
AUTHORGENERATED BY OPEN BABEL 2.3.2
REMARK  41 active torsions:
REMARK  status: ('A' for Active; 'I' for Inactive)
REMARK    1  A    between atoms: C_2  and  O_3
REMARK    2  A    between atoms: O_3  and  C_4
REMARK    3  A    between atoms: C_6  and  O_8
REMARK    4  A    between atoms: C_11  and  O_13
REMARK    5  A    between atoms: O_13  and  C_14
REMARK    6  A    between atoms: C_25  and  O_27
REMARK    7  A    between atoms: O_27  and  C_28
REMARK    8  A    between atoms: C_31  and  C_33
REMARK    9  A    between atoms: C_33  and  O_34
REMARK   10  A    between atoms: O_34  and  C_35
REMARK   11  A    between atoms: C_38  and  C_40
REMARK   12  A    between atoms: C_40  and  O_41
REMARK   13  A    between atoms: C_42  and  O_44
REMARK   14  A    between atoms: O_44  and  C_45
REMARK   15  A    between atoms: C_48  and  C_50
REMARK   16  A    between atoms: C_50  and  O_51
REMARK   17  A    between atoms: C_52  and  O_54
REMARK   18  A    between atoms: C_55  and  O_57
REMARK   19  A    between atoms: C_58  and  O_60
REMARK   20  A    between atoms: C_61  and  O_63
REMARK   21  A    between atoms: C_64  and  O_66
REMARK   22  A    between atoms: C_67  and  O_69
REMARK   23  A    between atoms: C_70  and  O_72
REMARK   24  A    between atoms: C_73  and  O_75
REMARK   25  A    between atoms: C_78  and  C_79
REMARK   26  A    between atoms: C_84  and  C_85
REMARK   27  A    between atoms: C_86  and  O_87
REMARK   28  A    between atoms: C_86  and  C_88
REMARK   29  A    between atoms: C_88  and  C_90
REMARK   30  A    between atoms: C_88  and  C_91
REMARK   31  A    between atoms: C_91  and  C_93
REMARK   32  A    between atoms: C_93  and  C_94
REMARK   33  A    between atoms: C_94  and  C_95
REMARK   34  A    between atoms: C_95  and  C_96
REMARK   35  A    between atoms: C_95  and  C_97
REMARK   36  A    between atoms: C_98  and  O_100
REMARK   37  A    between atoms: O_100  and  C_101
REMARK   38  A    between atoms: C_101  and  C_102
REMARK   39  A    between atoms: C_106  and  O_108
REMARK   40  A    between atoms: C_109  and  O_111
REMARK   41  A    between atoms: C_112  and  O_114
REMARK                            x       y       z     vdW  Elec       q    Type
REMARK                         _______ _______ _______ _____ _____    ______ ____
ROOT
ATOM      1  C   UNL     1      -5.736  -0.337  -0.395  1.00  0.00    +0.000 C 
ATOM      2  C   UNL     1      -4.439   0.376  -0.852  1.00  0.00    +0.000 C 
ATOM      3  C   UNL     1      -3.328  -0.644  -0.653  1.00  0.00    +0.000 C 
ATOM      4  C   UNL     1      -1.881  -0.129  -0.611  1.00  0.00    +0.000 C 
ATOM      5  C   UNL     1      -1.529   0.624  -1.904  1.00  0.00    +0.000 C 
ATOM      6  C   UNL     1      -0.060   0.847  -2.080  1.00  0.00    +0.000 C 
ATOM      7  C   UNL     1       0.902   0.223  -1.374  1.00  0.00    +0.000 C 
ATOM      8  C   UNL     1       2.359   0.577  -1.625  1.00  0.00    +0.000 C 
ATOM      9  C   UNL     1       3.344  -0.592  -1.447  1.00  0.00    +0.000 C 
ATOM     10  C   UNL     1       2.628  -1.932  -1.567  1.00  0.00    +0.000 C 
ATOM     11  C   UNL     1       1.522  -2.095  -0.517  1.00  0.00    +0.000 C 
ATOM     12  C   UNL     1       0.599  -0.847  -0.318  1.00  0.00    +0.000 C 
ATOM     13  C   UNL     1       0.887  -0.211   1.067  1.00  0.00    +0.000 C 
ATOM     14  C   UNL     1      -0.908  -1.324  -0.413  1.00  0.00    +0.000 C 
ATOM     15  C   UNL     1      -1.345  -2.259   0.744  1.00  0.00    +0.000 C 
ATOM     16  C   UNL     1      -2.833  -2.653   0.694  1.00  0.00    +0.000 C 
ATOM     17  C   UNL     1      -3.757  -1.418   0.618  1.00  0.00    +0.000 C 
ATOM     18  C   UNL     1      -3.606  -0.573   1.911  1.00  0.00    +0.000 C 
ATOM     19  C   UNL     1      -5.282  -1.686   0.299  1.00  0.00    +0.000 C 
ENDROOT
BRANCH  19  20
ATOM     20  O   UNL     1      -5.367  -2.756  -0.668  1.00  0.00    +0.000 OA
ATOM     21  H   UNL     1      -4.923  -2.499  -1.492  1.00  0.00    +0.000 HD
ENDBRANCH  19  20
BRANCH  19  22
ATOM     22  C   UNL     1      -6.176  -2.099   1.505  1.00  0.00    +0.000 C 
ATOM     23  C   UNL     1      -5.801  -3.428   2.164  1.00  0.00    +0.000 C 
BRANCH  22  24
ATOM     24  C   UNL     1      -7.673  -2.158   1.169  1.00  0.00    +0.000 C 
ATOM     25  O   UNL     1      -8.483  -1.516   1.845  1.00  0.00    +0.000 OA
BRANCH  24  26
ATOM     26  C   UNL     1      -8.141  -3.046   0.025  1.00  0.00    +0.000 C 
BRANCH  26  27
ATOM     27  C   UNL     1      -9.646  -3.318   0.082  1.00  0.00    +0.000 C 
BRANCH  27  28
ATOM     28  C   UNL     1     -10.162  -4.137  -1.115  1.00  0.00    +0.000 C 
ATOM     29  C   UNL     1     -11.691  -4.187  -1.089  1.00  0.00    +0.000 C 
ATOM     30  C   UNL     1      -9.599  -5.559  -1.132  1.00  0.00    +0.000 C 
ENDBRANCH  27  28
ENDBRANCH  26  27
ENDBRANCH  24  26
ENDBRANCH  22  24
ENDBRANCH  19  22
BRANCH   9  31
ATOM     31  O   UNL     1       3.957  -0.553  -0.150  1.00  0.00    +0.000 OA
BRANCH  31  32
ATOM     32  C   UNL     1       5.107   0.302  -0.096  1.00  0.00    +0.000 C 
ATOM     33  O   UNL     1       6.192  -0.302  -0.802  1.00  0.00    +0.000 OA
ATOM     34  C   UNL     1       7.093  -1.094  -0.008  1.00  0.00    +0.000 C 
ATOM     35  C   UNL     1       6.351  -1.815   1.119  1.00  0.00    +0.000 C 
ATOM     36  C   UNL     1       5.775  -0.762   2.090  1.00  0.00    +0.000 C 
ATOM     37  C   UNL     1       5.416   0.565   1.391  1.00  0.00    +0.000 C 
BRANCH  35  38
ATOM     38  O   UNL     1       7.199  -2.709   1.844  1.00  0.00    +0.000 OA
ATOM     39  H   UNL     1       6.677  -3.018   2.609  1.00  0.00    +0.000 HD
ENDBRANCH  35  38
BRANCH  36  40
ATOM     40  O   UNL     1       4.627  -1.329   2.742  1.00  0.00    +0.000 OA
ATOM     41  H   UNL     1       3.930  -1.419   2.061  1.00  0.00    +0.000 HD
ENDBRANCH  36  40
BRANCH  37  42
ATOM     42  O   UNL     1       6.498   1.504   1.502  1.00  0.00    +0.000 OA
ATOM     43  H   UNL     1       6.600   1.722   2.449  1.00  0.00    +0.000 HD
ENDBRANCH  37  42
BRANCH  34  44
ATOM     44  C   UNL     1       7.836  -2.066  -0.937  1.00  0.00    +0.000 C 
BRANCH  44  45
ATOM     45  O   UNL     1       8.509  -1.416  -2.026  1.00  0.00    +0.000 OA
BRANCH  45  46
ATOM     46  C   UNL     1       9.698  -0.715  -1.648  1.00  0.00    +0.000 C 
ATOM     47  O   UNL     1       9.368   0.517  -1.002  1.00  0.00    +0.000 OA
ATOM     48  C   UNL     1      10.527   1.108  -0.379  1.00  0.00    +0.000 C 
ATOM     49  C   UNL     1      11.709   1.217  -1.373  1.00  0.00    +0.000 C 
ATOM     50  C   UNL     1      11.226   0.955  -2.814  1.00  0.00    +0.000 C 
ATOM     51  C   UNL     1      10.488  -0.397  -2.941  1.00  0.00    +0.000 C 
BRANCH  50  52
ATOM     52  O   UNL     1      10.375   2.030  -3.243  1.00  0.00    +0.000 OA
ATOM     53  H   UNL     1       9.496   1.890  -2.836  1.00  0.00    +0.000 HD
ENDBRANCH  50  52
BRANCH  51  54
ATOM     54  O   UNL     1      11.408  -1.465  -3.222  1.00  0.00    +0.000 OA
ATOM     55  H   UNL     1      11.747  -1.311  -4.121  1.00  0.00    +0.000 HD
ENDBRANCH  51  54
BRANCH  49  56
ATOM     56  O   UNL     1      12.703   0.221  -1.069  1.00  0.00    +0.000 OA
BRANCH  56  57
ATOM     57  C   UNL     1      13.588   0.608  -0.005  1.00  0.00    +0.000 C 
ATOM     58  O   UNL     1      14.402   1.692  -0.435  1.00  0.00    +0.000 OA
ATOM     59  C   UNL     1      15.603   1.915   0.331  1.00  0.00    +0.000 C 
ATOM     60  C   UNL     1      15.677   1.150   1.670  1.00  0.00    +0.000 C 
ATOM     61  C   UNL     1      15.334  -0.342   1.526  1.00  0.00    +0.000 C 
ATOM     62  C   UNL     1      14.448  -0.623   0.309  1.00  0.00    +0.000 C 
BRANCH  61  63
ATOM     63  O   UNL     1      16.526  -1.132   1.429  1.00  0.00    +0.000 OA
ATOM     64  H   UNL     1      16.225  -2.061   1.378  1.00  0.00    +0.000 HD
ENDBRANCH  61  63
BRANCH  62  65
ATOM     65  O   UNL     1      13.651  -1.790   0.563  1.00  0.00    +0.000 OA
ATOM     66  H   UNL     1      13.043  -1.855  -0.202  1.00  0.00    +0.000 HD
ENDBRANCH  62  65
BRANCH  60  67
ATOM     67  O   UNL     1      14.707   1.742   2.559  1.00  0.00    +0.000 OA
ATOM     68  H   UNL     1      14.970   1.499   3.466  1.00  0.00    +0.000 HD
ENDBRANCH  60  67
BRANCH  59  69
ATOM     69  C   UNL     1      16.814   1.638  -0.572  1.00  0.00    +0.000 C 
BRANCH  69  70
ATOM     70  O   UNL     1      18.020   2.052   0.057  1.00  0.00    +0.000 OA
ATOM     71  H   UNL     1      18.746   1.846  -0.558  1.00  0.00    +0.000 HD
ENDBRANCH  69  70
ENDBRANCH  59  69
ENDBRANCH  56  57
ENDBRANCH  49  56
BRANCH  48  72
ATOM     72  C   UNL     1      10.104   2.484   0.150  1.00  0.00    +0.000 C 
BRANCH  72  73
ATOM     73  O   UNL     1       9.176   2.329   1.226  1.00  0.00    +0.000 OA
ATOM     74  H   UNL     1       8.357   1.944   0.845  1.00  0.00    +0.000 HD
ENDBRANCH  72  73
ENDBRANCH  48  72
ENDBRANCH  45  46
ENDBRANCH  44  45
ENDBRANCH  34  44
ENDBRANCH  31  32
ENDBRANCH   9  31
BRANCH   1  75
ATOM     75  O   UNL     1      -6.449   0.498   0.509  1.00  0.00    +0.000 OA
BRANCH  75  80
ATOM     76  C   UNL     1      -9.332   2.783  -0.326  1.00  0.00    +0.000 C 
ATOM     77  C   UNL     1      -8.379   3.906  -0.752  1.00  0.00    +0.000 C 
ATOM     78  C   UNL     1      -7.208   4.020   0.231  1.00  0.00    +0.000 C 
ATOM     79  O   UNL     1      -6.757   2.772   0.759  1.00  0.00    +0.000 OA
ATOM     80  C   UNL     1      -7.052   1.658  -0.075  1.00  0.00    +0.000 C 
ATOM     81  C   UNL     1      -8.580   1.439  -0.240  1.00  0.00    +0.000 C 
BRANCH  77  82
ATOM     82  O   UNL     1      -9.066   5.155  -0.856  1.00  0.00    +0.000 OA
ATOM     83  H   UNL     1      -9.786   5.127  -0.190  1.00  0.00    +0.000 HD
ENDBRANCH  77  82
BRANCH  81  84
ATOM     84  O   UNL     1      -8.738   0.678  -1.474  1.00  0.00    +0.000 OA
BRANCH  84  85
ATOM     85  C   UNL     1      -9.961   0.125  -1.697  1.00  0.00    +0.000 C 
ATOM     86  C   UNL     1      -9.934  -0.674  -2.964  1.00  0.00    +0.000 C 
ATOM     87  O   UNL     1     -10.957   0.288  -1.008  1.00  0.00    +0.000 OA
ENDBRANCH  84  85
ENDBRANCH  81  84
BRANCH  76  88
ATOM     88  O   UNL     1      -9.851   3.139   0.970  1.00  0.00    +0.000 OA
BRANCH  88  89
ATOM     89  C   UNL     1     -11.279   3.146   1.020  1.00  0.00    +0.000 C 
ATOM     90  O   UNL     1     -11.720   4.312   0.311  1.00  0.00    +0.000 OA
ATOM     91  C   UNL     1     -13.139   4.439   0.312  1.00  0.00    +0.000 C 
ATOM     92  C   UNL     1     -13.668   4.612   1.733  1.00  0.00    +0.000 C 
ATOM     93  C   UNL     1     -13.238   3.413   2.577  1.00  0.00    +0.000 C 
ATOM     94  C   UNL     1     -11.726   3.199   2.498  1.00  0.00    +0.000 C 
BRANCH  92  95
ATOM     95  O   UNL     1     -15.094   4.702   1.754  1.00  0.00    +0.000 OA
ATOM     96  H   UNL     1     -15.341   5.542   1.325  1.00  0.00    +0.000 HD
ENDBRANCH  92  95
BRANCH  93  97
ATOM     97  O   UNL     1     -13.619   3.616   3.948  1.00  0.00    +0.000 OA
ATOM     98  H   UNL     1     -14.566   3.859   3.918  1.00  0.00    +0.000 HD
ENDBRANCH  93  97
BRANCH  94  99
ATOM     99  O   UNL     1     -11.405   1.985   3.190  1.00  0.00    +0.000 OA
ATOM    100  H   UNL     1     -11.825   2.064   4.069  1.00  0.00    +0.000 HD
ENDBRANCH  94  99
ENDBRANCH  88  89
ENDBRANCH  76  88
ENDBRANCH  75  80
ENDBRANCH   1  75
TORSDOF 35
