REMARK  Name = /srv/my_project/app/compsite/backup/Dave/CORINA_stuff/newPDBs/SANC00624.pdb
AUTHORGENERATED BY OPEN BABEL 2.3.2
REMARK  5 active torsions:
REMARK  status: ('A' for Active; 'I' for Inactive)
REMARK    1  A    between atoms: C_1  and  C_2
REMARK    2  A    between atoms: C_5  and  C_30
REMARK    3  A    between atoms: C_7  and  C_28
REMARK    4  A    between atoms: C_7  and  O_29
REMARK    5  A    between atoms: C_14  and  O_27
REMARK                            x       y       z     vdW  Elec       q    Type
REMARK                         _______ _______ _______ _____ _____    ______ ____
ROOT
ATOM      1  C   UNL     1      -2.874   1.129  -2.160  1.00  0.00    +0.000 C 
ATOM      2  C   UNL     1      -1.635   1.431  -1.377  1.00  0.00    +0.000 C 
ATOM      3  C   UNL     1      -1.474   1.409  -0.037  1.00  0.00    +0.000 C 
ATOM      4  C   UNL     1      -2.536   1.106   0.991  1.00  0.00    +0.000 C 
ATOM      5  C   UNL     1      -2.216  -0.017   2.018  1.00  0.00    +0.000 C 
ATOM      6  C   UNL     1      -1.892  -1.427   1.405  1.00  0.00    +0.000 C 
ATOM      7  C   UNL     1      -0.385  -1.718   1.633  1.00  0.00    +0.000 C 
ATOM      8  O   UNL     1       0.098  -2.115   2.687  1.00  0.00    +0.000 OA
ATOM      9  O   UNL     1       0.340  -1.452   0.501  1.00  0.00    +0.000 OA
ATOM     10  C   UNL     1       1.739  -1.737   0.634  1.00  0.00    +0.000 C 
ATOM     11  C   UNL     1       2.575  -1.181  -0.514  1.00  0.00    +0.000 C 
ATOM     12  C   UNL     1       1.944  -1.166  -1.897  1.00  0.00    +0.000 C 
ATOM     13  C   UNL     1       2.932  -0.293  -2.681  1.00  0.00    +0.000 C 
ATOM     14  N   UNL     1       3.495   0.684  -1.727  1.00  0.00    +0.000 NA
ATOM     15  C   UNL     1       3.093   0.249  -0.356  1.00  0.00    +0.000 C 
ATOM     16  C   UNL     1       2.180   1.359   0.190  1.00  0.00    +0.000 C 
ATOM     17  C   UNL     1       2.730   2.584  -0.523  1.00  0.00    +0.000 C 
ATOM     18  C   UNL     1       2.978   2.046  -1.926  1.00  0.00    +0.000 C 
ATOM     19  O   UNL     1       0.822   1.160  -0.228  1.00  0.00    +0.000 OA
ATOM     20  C   UNL     1      -0.136   1.765   0.514  1.00  0.00    +0.000 C 
ATOM     21  O   UNL     1       0.037   2.423   1.525  1.00  0.00    +0.000 OA
ATOM     22  C   UNL     1      -2.651  -2.606   2.034  1.00  0.00    +0.000 C 
ATOM     23  C   UNL     1      -3.360  -0.035   3.050  1.00  0.00    +0.000 C 
ENDROOT
BRANCH  12  24
ATOM     24  O   UNL     1       1.850  -2.473  -2.442  1.00  0.00    +0.000 OA
ATOM     25  H   UNL     1       1.162  -2.950  -1.946  1.00  0.00    +0.000 HD
ENDBRANCH  12  24
BRANCH   6  26
ATOM     26  O   UNL     1      -2.246  -1.483   0.019  1.00  0.00    +0.000 OA
ATOM     27  H   UNL     1      -1.474  -1.160  -0.482  1.00  0.00    +0.000 HD
ENDBRANCH   6  26
TORSDOF 2
