REMARK  Name = /srv/my_project/app/compsite/backup/Dave/CORINA_stuff/newPDBs/SANC00151.pdb
AUTHORGENERATED BY OPEN BABEL 2.3.2
REMARK  13 active torsions:
REMARK  status: ('A' for Active; 'I' for Inactive)
REMARK    1  A    between atoms: C_5  and  C_6
REMARK    2  A    between atoms: C_5  and  O_7
REMARK    3  A    between atoms: O_7  and  C_8
REMARK    4  A    between atoms: C_8  and  C_9
REMARK    5  A    between atoms: C_18  and  O_20
REMARK    6  A    between atoms: O_20  and  C_21
REMARK    7  A    between atoms: C_21  and  C_22
REMARK    8  A    between atoms: C_26  and  C_27
REMARK    9  A    between atoms: C_27  and  C_29
REMARK   10  A    between atoms: C_30  and  C_31
REMARK   11  A    between atoms: C_31  and  C_32
REMARK   12  A    between atoms: C_31  and  C_33
REMARK   13  A    between atoms: C_31  and  O_34
REMARK                            x       y       z     vdW  Elec       q    Type
REMARK                         _______ _______ _______ _____ _____    ______ ____
ROOT
ATOM      1  C   UNL     1      -0.469  -0.071   0.248  1.00  0.00    +0.000 C 
ATOM      2  C   UNL     1      -0.597   0.777  -1.029  1.00  0.00    +0.000 C 
ATOM      3  C   UNL     1      -1.874   0.539  -1.853  1.00  0.00    +0.000 C 
ATOM      4  C   UNL     1      -3.218   1.024  -1.256  1.00  0.00    +0.000 C 
ATOM      5  C   UNL     1      -4.291   1.006  -2.370  1.00  0.00    +0.000 C 
ATOM      6  C   UNL     1      -3.878   0.307  -0.079  1.00  0.00    +0.000 C 
ATOM      7  C   UNL     1      -3.745  -0.794   0.683  1.00  0.00    +0.000 C 
ATOM      8  C   UNL     1      -2.833  -1.983   0.799  1.00  0.00    +0.000 C 
ATOM      9  C   UNL     1      -1.829  -2.195  -0.291  1.00  0.00    +0.000 C 
ATOM     10  C   UNL     1      -2.139  -2.951  -1.364  1.00  0.00    +0.000 C 
ATOM     11  C   UNL     1      -0.429  -1.593  -0.107  1.00  0.00    +0.000 C 
ATOM     12  C   UNL     1       0.518  -2.411   0.834  1.00  0.00    +0.000 C 
ATOM     13  O   UNL     1       0.671  -1.852   2.150  1.00  0.00    +0.000 OA
ATOM     14  C   UNL     1       1.089  -0.547   2.090  1.00  0.00    +0.000 C 
ATOM     15  C   UNL     1       0.665   0.320   1.162  1.00  0.00    +0.000 C 
ENDROOT
BRANCH  15  16
ATOM     16  C   UNL     1       1.104   1.731   1.283  1.00  0.00    +0.000 C 
ATOM     17  O   UNL     1       0.292   2.631   1.477  1.00  0.00    +0.000 OA
BRANCH  16  18
ATOM     18  C   UNL     1       2.553   2.055   1.169  1.00  0.00    +0.000 C 
ATOM     19  C   UNL     1       3.502   1.241   0.672  1.00  0.00    +0.000 C 
BRANCH  19  20
ATOM     20  C   UNL     1       4.973   1.554   0.522  1.00  0.00    +0.000 C 
ATOM     21  C   UNL     1       5.804   0.541   1.317  1.00  0.00    +0.000 C 
ATOM     22  C   UNL     1       5.389   2.976   0.909  1.00  0.00    +0.000 C 
BRANCH  20  23
ATOM     23  O   UNL     1       5.283   1.402  -0.864  1.00  0.00    +0.000 OA
ATOM     24  H   UNL     1       5.174   0.467  -1.103  1.00  0.00    +0.000 HD
ENDBRANCH  20  23
ENDBRANCH  19  20
ENDBRANCH  16  18
ENDBRANCH  15  16
BRANCH   4  25
ATOM     25  O   UNL     1      -3.063   2.378  -0.728  1.00  0.00    +0.000 OA
BRANCH  25  26
ATOM     26  C   UNL     1      -2.713   3.427  -1.513  1.00  0.00    +0.000 C 
ATOM     27  C   UNL     1      -2.584   4.661  -0.672  1.00  0.00    +0.000 C 
ATOM     28  O   UNL     1      -2.521   3.399  -2.719  1.00  0.00    +0.000 OA
ENDBRANCH  25  26
ENDBRANCH   4  25
BRANCH  12  29
ATOM     29  O   UNL     1       0.116  -3.785   0.965  1.00  0.00    +0.000 OA
BRANCH  29  30
ATOM     30  C   UNL     1       0.504  -4.598  -0.050  1.00  0.00    +0.000 C 
ATOM     31  C   UNL     1       0.010  -5.991   0.192  1.00  0.00    +0.000 C 
ATOM     32  O   UNL     1       1.158  -4.256  -1.025  1.00  0.00    +0.000 OA
ENDBRANCH  29  30
ENDBRANCH  12  29
TORSDOF 8
