REMARK  Name = SANCDB_00924_minRM1.pdb
AUTHORGENERATED BY OPEN BABEL 2.3.2
REMARK  4 active torsions:
REMARK  status: ('A' for Active; 'I' for Inactive)
REMARK    1  A    between atoms: C_1  and  C_2
REMARK    2  A    between atoms: C_2  and  C_16
REMARK    3  A    between atoms: C_9  and  C_10
REMARK    4  A    between atoms: C_9  and  O_11
REMARK                            x       y       z     vdW  Elec       q    Type
REMARK                         _______ _______ _______ _____ _____    ______ ____
ROOT
ATOM      1  C   UNL     1       3.059   1.470  -1.071  1.00  0.00    +0.000 C 
ATOM      2  C   UNL     1       2.153   0.618  -0.211  1.00  0.00    +0.000 C 
ATOM      3  C   UNL     1       1.779  -0.757  -0.754  1.00  0.00    +0.000 C 
ATOM      4  C   UNL     1       0.751   0.353  -0.750  1.00  0.00    +0.000 C 
ATOM      5  C   UNL     1      -0.479   0.221   0.115  1.00  0.00    +0.000 C 
ATOM      6  C   UNL     1      -1.382  -0.921  -0.437  1.00  0.00    +0.000 C 
ATOM      7  C   UNL     1      -2.802  -0.431  -0.131  1.00  0.00    +0.000 C 
ATOM      8  C   UNL     1      -2.719   1.053  -0.463  1.00  0.00    +0.000 C 
ATOM      9  C   UNL     1      -1.390   1.485   0.169  1.00  0.00    +0.000 C 
ATOM     10  C   UNL     1      -0.841   2.761  -0.462  1.00  0.00    +0.000 C 
ATOM     11  C   UNL     1      -0.976  -2.302   0.064  1.00  0.00    +0.000 C 
ATOM     12  C   UNL     1      -1.749  -3.076   0.845  1.00  0.00    +0.000 C 
ATOM     13  C   UNL     1       0.379  -2.818  -0.406  1.00  0.00    +0.000 C 
ATOM     14  C   UNL     1       1.576  -1.987   0.084  1.00  0.00    +0.000 C 
ATOM     15  C   UNL     1       2.385   0.837   1.264  1.00  0.00    +0.000 C 
ENDROOT
BRANCH   9  16
ATOM     16  O   UNL     1      -1.633   1.779   1.556  1.00  0.00    +0.000 OA
ATOM     17  H   UNL     1      -2.249   2.530   1.602  1.00  0.00    +0.000 HD
ENDBRANCH   9  16
TORSDOF 1
