REMARK  Name = SANCDB_01088_minRM1.pdb
AUTHORGENERATED BY OPEN BABEL 2.3.2
REMARK  15 active torsions:
REMARK  status: ('A' for Active; 'I' for Inactive)
REMARK    1  A    between atoms: C_3  and  O_32
REMARK    2  A    between atoms: C_4  and  O_31
REMARK    3  A    between atoms: C_6  and  C_7
REMARK    4  A    between atoms: C_7  and  C_8
REMARK    5  A    between atoms: C_8  and  C_9
REMARK    6  A    between atoms: C_9  and  C_11
REMARK    7  A    between atoms: C_12  and  O_30
REMARK    8  A    between atoms: C_14  and  O_29
REMARK    9  A    between atoms: C_15  and  C_18
REMARK   10  A    between atoms: C_16  and  O_17
REMARK   11  A    between atoms: C_19  and  O_28
REMARK   12  A    between atoms: C_20  and  O_27
REMARK   13  A    between atoms: C_21  and  O_26
REMARK   14  A    between atoms: C_22  and  C_24
REMARK   15  A    between atoms: C_24  and  O_25
REMARK                            x       y       z     vdW  Elec       q    Type
REMARK                         _______ _______ _______ _____ _____    ______ ____
ROOT
ATOM      1  C   UNL     1       0.634   0.613   0.443  1.00  0.00    +0.000 A 
ATOM      2  C   UNL     1       0.515  -0.273   1.521  1.00  0.00    +0.000 A 
ATOM      3  C   UNL     1      -0.742  -0.630   2.012  1.00  0.00    +0.000 A 
ATOM      4  C   UNL     1      -1.891  -0.088   1.445  1.00  0.00    +0.000 A 
ATOM      5  C   UNL     1      -1.829   0.813   0.377  1.00  0.00    +0.000 A 
ATOM      6  C   UNL     1      -0.551   1.151  -0.112  1.00  0.00    +0.000 A 
ENDROOT
BRANCH   5   7
ATOM      7  C   UNL     1      -3.067   1.373  -0.304  1.00  0.00    +0.000 C 
ATOM      8  C   UNL     1      -3.386   0.602  -1.611  1.00  0.00    +0.000 C 
ATOM      9  C   UNL     1      -4.445  -0.496  -1.421  1.00  0.00    +0.000 C 
ATOM     10  C   UNL     1      -5.654  -0.057  -0.566  1.00  0.00    +0.000 C 
ATOM     11  C   UNL     1      -5.445   1.337   0.042  1.00  0.00    +0.000 C 
ATOM     12  O   UNL     1      -4.145   1.400   0.646  1.00  0.00    +0.000 OA
BRANCH  10  13
ATOM     13  O   UNL     1      -6.861  -0.070  -1.339  1.00  0.00    +0.000 OA
ATOM     14  H   UNL     1      -6.958  -0.974  -1.691  1.00  0.00    +0.000 HD
ENDBRANCH  10  13
BRANCH   9  15
ATOM     15  O   UNL     1      -3.851  -1.677  -0.857  1.00  0.00    +0.000 OA
ATOM     16  H   UNL     1      -3.640  -1.504   0.082  1.00  0.00    +0.000 HD
ENDBRANCH   9  15
BRANCH   8  17
ATOM     17  O   UNL     1      -3.869   1.534  -2.599  1.00  0.00    +0.000 OA
ATOM     18  H   UNL     1      -3.111   2.098  -2.841  1.00  0.00    +0.000 HD
ENDBRANCH   8  17
BRANCH  11  19
ATOM     19  C   UNL     1      -6.481   1.628   1.139  1.00  0.00    +0.000 C 
BRANCH  19  20
ATOM     20  O   UNL     1      -6.356   0.689   2.211  1.00  0.00    +0.000 OA
ATOM     21  H   UNL     1      -7.035   0.924   2.867  1.00  0.00    +0.000 HD
ENDBRANCH  19  20
ENDBRANCH  11  19
ENDBRANCH   5   7
BRANCH   1  22
ATOM     22  C   UNL     1       1.949   1.008  -0.157  1.00  0.00    +0.000 C 
ATOM     23  O   UNL     1       1.971   2.013  -0.875  1.00  0.00    +0.000 OA
BRANCH  22  24
ATOM     24  C   UNL     1       3.194   0.179   0.090  1.00  0.00    +0.000 C 
BRANCH  24  25
ATOM     25  C   UNL     1       4.300   0.522  -0.909  1.00  0.00    +0.000 C 
BRANCH  25  31
ATOM     26  C   UNL     1       6.535   0.088   0.192  1.00  0.00    +0.000 A 
ATOM     27  C   UNL     1       7.660  -0.711   0.417  1.00  0.00    +0.000 A 
ATOM     28  C   UNL     1       7.770  -1.928  -0.238  1.00  0.00    +0.000 A 
ATOM     29  C   UNL     1       6.790  -2.337  -1.137  1.00  0.00    +0.000 A 
ATOM     30  C   UNL     1       5.661  -1.559  -1.356  1.00  0.00    +0.000 A 
ATOM     31  C   UNL     1       5.526  -0.331  -0.693  1.00  0.00    +0.000 A 
BRANCH  29  32
ATOM     32  O   UNL     1       6.939  -3.498  -1.840  1.00  0.00    +0.000 OA
ATOM     33  H   UNL     1       7.882  -3.536  -2.088  1.00  0.00    +0.000 HD
ENDBRANCH  29  32
BRANCH  28  34
ATOM     34  O   UNL     1       8.838  -2.732   0.037  1.00  0.00    +0.000 OA
ATOM     35  H   UNL     1       8.499  -3.646   0.000  1.00  0.00    +0.000 HD
ENDBRANCH  28  34
ENDBRANCH  25  31
ENDBRANCH  24  25
ENDBRANCH  22  24
ENDBRANCH   1  22
BRANCH   6  36
ATOM     36  O   UNL     1      -0.525   2.021  -1.182  1.00  0.00    +0.000 OA
ATOM     37  H   UNL     1       0.412   2.295  -1.326  1.00  0.00    +0.000 HD
ENDBRANCH   6  36
BRANCH   4  38
ATOM     38  O   UNL     1      -3.081  -0.502   1.977  1.00  0.00    +0.000 OA
ATOM     39  H   UNL     1      -3.733   0.227   1.848  1.00  0.00    +0.000 HD
ENDBRANCH   4  38
BRANCH   2  40
ATOM     40  O   UNL     1       1.618  -0.796   2.135  1.00  0.00    +0.000 OA
ATOM     41  H   UNL     1       1.342  -1.383   2.862  1.00  0.00    +0.000 HD
ENDBRANCH   2  40
TORSDOF 15
