REMARK  Name = /srv/my_project/app/compsite/backup/Dave/CORINA_stuff/newPDBs/SANC00359.pdb
AUTHORGENERATED BY OPEN BABEL 2.3.2
REMARK  8 active torsions:
REMARK  status: ('A' for Active; 'I' for Inactive)
REMARK    1  A    between atoms: C_1  and  O_2
REMARK    2  A    between atoms: O_2  and  C_3
REMARK    3  A    between atoms: C_4  and  O_5
REMARK    4  A    between atoms: C_10  and  C_12
REMARK    5  A    between atoms: C_12  and  C_13
REMARK    6  A    between atoms: C_16  and  O_17
REMARK    7  A    between atoms: C_23  and  O_24
REMARK    8  A    between atoms: O_24  and  C_25
REMARK                            x       y       z     vdW  Elec       q    Type
REMARK                         _______ _______ _______ _____ _____    ______ ____
ROOT
ATOM      1  C   UNL     1      -3.349   0.165  -0.192  1.00  0.00    +0.000 A 
ATOM      2  C   UNL     1      -3.591  -1.165  -0.547  1.00  0.00    +0.000 A 
ATOM      3  C   UNL     1      -2.633  -2.148  -0.354  1.00  0.00    +0.000 A 
ATOM      4  C   UNL     1      -1.406  -1.798   0.207  1.00  0.00    +0.000 A 
ATOM      5  O   UNL     1      -0.495  -2.817   0.331  1.00  0.00    +0.000 OA
ATOM      6  C   UNL     1       0.847  -2.328   0.257  1.00  0.00    +0.000 C 
ATOM      7  C   UNL     1       1.120  -1.371   1.405  1.00  0.00    +0.000 C 
ATOM      8  C   UNL     1       0.130  -0.221   1.335  1.00  0.00    +0.000 C 
ATOM      9  O   UNL     1       0.346   0.843   1.909  1.00  0.00    +0.000 OA
ATOM     10  C   UNL     1      -1.160  -0.485   0.637  1.00  0.00    +0.000 A 
ATOM     11  C   UNL     1      -2.147   0.500   0.449  1.00  0.00    +0.000 A 
ENDROOT
BRANCH   1  13
ATOM     12  C   UNL     1      -3.934   2.207  -1.173  1.00  0.00    +0.000 C 
ATOM     13  O   UNL     1      -4.369   1.044  -0.465  1.00  0.00    +0.000 OA
ENDBRANCH   1  13
BRANCH   2  14
ATOM     14  O   UNL     1      -4.782  -1.522  -1.117  1.00  0.00    +0.000 OA
ATOM     15  H   UNL     1      -5.321  -0.707  -1.131  1.00  0.00    +0.000 HD
ENDBRANCH   2  14
BRANCH  11  16
ATOM     16  O   UNL     1      -1.928   1.795   0.842  1.00  0.00    +0.000 OA
ATOM     17  C   UNL     1      -2.502   2.026   2.131  1.00  0.00    +0.000 C 
ENDBRANCH  11  16
BRANCH   7  18
ATOM     18  C   UNL     1       2.582  -0.899   1.468  1.00  0.00    +0.000 C 
BRANCH  18  19
ATOM     19  C   UNL     1       3.142  -0.339   0.180  1.00  0.00    +0.000 A 
ATOM     20  C   UNL     1       3.911  -1.146  -0.671  1.00  0.00    +0.000 A 
ATOM     21  C   UNL     1       4.410  -0.636  -1.870  1.00  0.00    +0.000 A 
ATOM     22  C   UNL     1       4.148   0.683  -2.220  1.00  0.00    +0.000 A 
ATOM     23  C   UNL     1       3.395   1.503  -1.388  1.00  0.00    +0.000 A 
ATOM     24  C   UNL     1       2.895   0.991  -0.188  1.00  0.00    +0.000 A 
BRANCH  22  25
ATOM     25  O   UNL     1       4.655   1.140  -3.400  1.00  0.00    +0.000 OA
ATOM     26  H   UNL     1       4.410   2.075  -3.497  1.00  0.00    +0.000 HD
ENDBRANCH  22  25
ENDBRANCH  18  19
ENDBRANCH   7  18
TORSDOF 6
