REMARK  Name = /srv/my_project/app/compsite/backup/Dave/CORINA_stuff/newPDBs/SANC00564.pdb
AUTHORGENERATED BY OPEN BABEL 2.3.2
REMARK  6 active torsions:
REMARK  status: ('A' for Active; 'I' for Inactive)
REMARK    1  A    between atoms: C_2  and  C_3
REMARK    2  A    between atoms: C_3  and  C_4
REMARK    3  A    between atoms: C_3  and  C_13
REMARK    4  A    between atoms: C_5  and  C_6
REMARK    5  A    between atoms: C_9  and  O_10
REMARK    6  A    between atoms: C_16  and  O_17
REMARK                            x       y       z     vdW  Elec       q    Type
REMARK                         _______ _______ _______ _____ _____    ______ ____
ROOT
ATOM      1  C   UNL     1      -1.196  -1.018   0.784  1.00  0.00    +0.000 C 
ENDROOT
BRANCH   1   2
ATOM      2  C   UNL     1      -2.280  -0.321  -0.035  1.00  0.00    +0.000 A 
ATOM      3  C   UNL     1      -2.033   0.146  -1.338  1.00  0.00    +0.000 A 
ATOM      4  C   UNL     1      -3.043   0.765  -2.077  1.00  0.00    +0.000 A 
ATOM      5  C   UNL     1      -4.308   0.914  -1.523  1.00  0.00    +0.000 A 
ATOM      6  C   UNL     1      -4.583   0.453  -0.241  1.00  0.00    +0.000 A 
ATOM      7  C   UNL     1      -3.571  -0.166   0.499  1.00  0.00    +0.000 A 
BRANCH   5   8
ATOM      8  O   UNL     1      -5.265   1.523  -2.280  1.00  0.00    +0.000 OA
ATOM      9  H   UNL     1      -6.088   1.556  -1.767  1.00  0.00    +0.000 HD
ENDBRANCH   5   8
ENDBRANCH   1   2
BRANCH   1  11
ATOM     10  C   UNL     1      -1.184  -3.525   1.135  1.00  0.00    +0.000 C 
ATOM     11  C   UNL     1      -1.042  -2.457   0.337  1.00  0.00    +0.000 C 
ENDBRANCH   1  11
BRANCH   1  12
ATOM     12  C   UNL     1       0.102  -0.226   0.798  1.00  0.00    +0.000 C 
ATOM     13  C   UNL     1       1.332  -0.656   0.466  1.00  0.00    +0.000 C 
BRANCH  13  14
ATOM     14  C   UNL     1       2.533   0.191   0.502  1.00  0.00    +0.000 A 
ATOM     15  C   UNL     1       2.768   1.113   1.531  1.00  0.00    +0.000 A 
ATOM     16  C   UNL     1       3.936   1.879   1.544  1.00  0.00    +0.000 A 
ATOM     17  C   UNL     1       4.877   1.717   0.536  1.00  0.00    +0.000 A 
ATOM     18  C   UNL     1       4.673   0.797  -0.487  1.00  0.00    +0.000 A 
ATOM     19  C   UNL     1       3.503   0.031  -0.498  1.00  0.00    +0.000 A 
BRANCH  17  20
ATOM     20  O   UNL     1       6.003   2.484   0.588  1.00  0.00    +0.000 OA
ATOM     21  H   UNL     1       6.559   2.270  -0.179  1.00  0.00    +0.000 HD
ENDBRANCH  17  20
ENDBRANCH  13  14
ENDBRANCH   1  12
TORSDOF 6
