REMARK  Name = SANCDB_00770_minRM1.pdb
AUTHORGENERATED BY OPEN BABEL 2.3.2
REMARK  3 active torsions:
REMARK  status: ('A' for Active; 'I' for Inactive)
REMARK    1  A    between atoms: O_1  and  C_2
REMARK    2  A    between atoms: C_22  and  O_23
REMARK    3  A    between atoms: C_30  and  O_31
REMARK                            x       y       z     vdW  Elec       q    Type
REMARK                         _______ _______ _______ _____ _____    ______ ____
ROOT
ATOM      1  C   UNL     1       5.786   0.029   0.648  1.00  0.00    +0.000 A 
ATOM      2  C   UNL     1       5.315   1.158   1.292  1.00  0.00    +0.000 A 
ATOM      3  C   UNL     1       3.992   1.554   1.095  1.00  0.00    +0.000 A 
ATOM      4  C   UNL     1       3.111   0.832   0.257  1.00  0.00    +0.000 A 
ATOM      5  C   UNL     1       3.609  -0.318  -0.399  1.00  0.00    +0.000 A 
ATOM      6  C   UNL     1       4.953  -0.705  -0.189  1.00  0.00    +0.000 A 
ATOM      7  C   UNL     1       2.786  -1.181  -1.335  1.00  0.00    +0.000 C 
ATOM      8  C   UNL     1       2.347  -2.518  -0.718  1.00  0.00    +0.000 C 
ATOM      9  C   UNL     1       0.901  -2.524  -0.286  1.00  0.00    +0.000 A 
ATOM     10  C   UNL     1      -0.114  -2.554  -1.255  1.00  0.00    +0.000 A 
ATOM     11  C   UNL     1      -1.455  -2.536  -0.877  1.00  0.00    +0.000 A 
ATOM     12  C   UNL     1      -1.787  -2.479   0.476  1.00  0.00    +0.000 A 
ATOM     13  C   UNL     1      -0.792  -2.493   1.452  1.00  0.00    +0.000 A 
ATOM     14  C   UNL     1       0.552  -2.501   1.071  1.00  0.00    +0.000 A 
ATOM     15  O   UNL     1      -3.105  -2.417   0.875  1.00  0.00    +0.000 OA
ATOM     16  C   UNL     1      -3.758  -1.269   0.474  1.00  0.00    +0.000 A 
ATOM     17  C   UNL     1      -3.307  -0.019   0.908  1.00  0.00    +0.000 A 
ATOM     18  C   UNL     1      -3.929   1.156   0.473  1.00  0.00    +0.000 A 
ATOM     19  C   UNL     1      -5.038   1.055  -0.379  1.00  0.00    +0.000 A 
ATOM     20  C   UNL     1      -5.520  -0.197  -0.780  1.00  0.00    +0.000 A 
ATOM     21  C   UNL     1      -4.879  -1.357  -0.349  1.00  0.00    +0.000 A 
ATOM     22  C   UNL     1      -3.403   2.504   0.907  1.00  0.00    +0.000 C 
ATOM     23  C   UNL     1      -2.287   3.061   0.006  1.00  0.00    +0.000 C 
ATOM     24  C   UNL     1      -0.919   2.411   0.072  1.00  0.00    +0.000 A 
ATOM     25  C   UNL     1      -0.383   1.897   1.256  1.00  0.00    +0.000 A 
ATOM     26  C   UNL     1       0.902   1.344   1.282  1.00  0.00    +0.000 A 
ATOM     27  C   UNL     1       1.723   1.329   0.141  1.00  0.00    +0.000 A 
ATOM     28  C   UNL     1       1.194   1.886  -1.033  1.00  0.00    +0.000 A 
ATOM     29  C   UNL     1      -0.107   2.405  -1.074  1.00  0.00    +0.000 A 
ENDROOT
BRANCH   1  30
ATOM     30  O   UNL     1       7.083  -0.332   0.860  1.00  0.00    +0.000 OA
ATOM     31  H   UNL     1       7.275  -1.119   0.324  1.00  0.00    +0.000 HD
ENDBRANCH   1  30
BRANCH  21  32
ATOM     32  O   UNL     1      -5.326  -2.585  -0.749  1.00  0.00    +0.000 OA
ATOM     33  H   UNL     1      -6.141  -2.471  -1.263  1.00  0.00    +0.000 HD
ENDBRANCH  21  32
BRANCH  28  34
ATOM     34  O   UNL     1       1.977   1.952  -2.157  1.00  0.00    +0.000 OA
ATOM     35  H   UNL     1       1.478   2.396  -2.860  1.00  0.00    +0.000 HD
ENDBRANCH  28  34
TORSDOF 3
