REMARK  Name = SANCDB_01074_minRM1.pdb
AUTHORGENERATED BY OPEN BABEL 2.3.2
REMARK  34 active torsions:
REMARK  status: ('A' for Active; 'I' for Inactive)
REMARK    1  A    between atoms: C_1  and  C_2
REMARK    2  A    between atoms: C_2  and  C_3
REMARK    3  A    between atoms: C_3  and  C_4
REMARK    4  A    between atoms: C_4  and  C_5
REMARK    5  A    between atoms: C_5  and  C_6
REMARK    6  A    between atoms: C_6  and  C_7
REMARK    7  A    between atoms: C_7  and  C_8
REMARK    8  A    between atoms: C_8  and  C_9
REMARK    9  A    between atoms: C_9  and  C_10
REMARK   10  A    between atoms: C_10  and  C_11
REMARK   11  A    between atoms: C_11  and  C_12
REMARK   12  A    between atoms: C_12  and  C_13
REMARK   13  A    between atoms: C_13  and  C_14
REMARK   14  A    between atoms: C_14  and  C_15
REMARK   15  A    between atoms: C_15  and  C_16
REMARK   16  A    between atoms: C_16  and  C_17
REMARK   17  A    between atoms: C_17  and  C_18
REMARK   18  A    between atoms: C_18  and  C_19
REMARK   19  A    between atoms: C_19  and  C_20
REMARK   20  A    between atoms: C_20  and  C_21
REMARK   21  A    between atoms: C_21  and  C_22
REMARK   22  A    between atoms: C_22  and  C_23
REMARK   23  A    between atoms: C_23  and  C_24
REMARK   24  A    between atoms: C_24  and  C_25
REMARK   25  A    between atoms: C_25  and  C_26
REMARK   26  A    between atoms: C_26  and  C_27
REMARK   27  A    between atoms: C_27  and  C_28
REMARK   28  A    between atoms: C_28  and  O_29
REMARK   29  A    between atoms: O_29  and  C_30
REMARK   30  A    between atoms: C_30  and  C_32
REMARK   31  A    between atoms: C_33  and  C_34
REMARK   32  A    between atoms: C_36  and  O_41
REMARK   33  A    between atoms: C_37  and  O_40
REMARK   34  A    between atoms: O_41  and  C_42
REMARK                            x       y       z     vdW  Elec       q    Type
REMARK                         _______ _______ _______ _____ _____    ______ ____
ROOT
ATOM      1  C   UNL     1      -4.306   1.168   0.230  1.00  0.00    +0.000 C 
ENDROOT
BRANCH   1   2
ATOM      2  C   UNL     1      -4.161  -0.351   0.087  1.00  0.00    +0.000 C 
BRANCH   2   3
ATOM      3  C   UNL     1      -3.741  -0.790  -1.319  1.00  0.00    +0.000 C 
BRANCH   3   4
ATOM      4  C   UNL     1      -3.750  -2.314  -1.493  1.00  0.00    +0.000 C 
BRANCH   4   5
ATOM      5  C   UNL     1      -5.003  -2.869  -2.179  1.00  0.00    +0.000 C 
BRANCH   5   6
ATOM      6  C   UNL     1      -6.295  -2.652  -1.395  1.00  0.00    +0.000 C 
BRANCH   6   7
ATOM      7  C   UNL     1      -7.479  -3.348  -2.061  1.00  0.00    +0.000 C 
BRANCH   7   8
ATOM      8  O   UNL     1      -8.665  -3.157  -1.276  1.00  0.00    +0.000 OA
BRANCH   8   9
ATOM      9  C   UNL     1      -9.360  -2.021  -1.532  1.00  0.00    +0.000 C 
ATOM     10  O   UNL     1      -9.079  -1.160  -2.348  1.00  0.00    +0.000 OA
BRANCH   9  11
ATOM     11  C   UNL     1     -10.534  -1.997  -0.637  1.00  0.00    +0.000 C 
ATOM     12  C   UNL     1     -11.377  -0.953  -0.669  1.00  0.00    +0.000 C 
BRANCH  12  13
ATOM     13  C   UNL     1     -12.579  -0.842   0.169  1.00  0.00    +0.000 A 
ATOM     14  C   UNL     1     -13.722  -0.226  -0.372  1.00  0.00    +0.000 A 
ATOM     15  C   UNL     1     -14.879  -0.077   0.396  1.00  0.00    +0.000 A 
ATOM     16  C   UNL     1     -14.876  -0.541   1.715  1.00  0.00    +0.000 A 
ATOM     17  C   UNL     1     -13.754  -1.137   2.273  1.00  0.00    +0.000 A 
ATOM     18  C   UNL     1     -12.602  -1.283   1.500  1.00  0.00    +0.000 A 
BRANCH  15  19
ATOM     19  O   UNL     1     -16.057   0.494  -0.014  1.00  0.00    +0.000 OA
ATOM     20  C   UNL     1     -16.099   0.983  -1.350  1.00  0.00    +0.000 C 
ENDBRANCH  15  19
BRANCH  16  21
ATOM     21  O   UNL     1     -15.993  -0.410   2.494  1.00  0.00    +0.000 OA
ATOM     22  H   UNL     1     -16.650   0.030   1.920  1.00  0.00    +0.000 HD
ENDBRANCH  16  21
ENDBRANCH  12  13
ENDBRANCH   9  11
ENDBRANCH   8   9
ENDBRANCH   7   8
ENDBRANCH   6   7
ENDBRANCH   5   6
ENDBRANCH   4   5
ENDBRANCH   3   4
ENDBRANCH   2   3
ENDBRANCH   1   2
BRANCH   1  23
ATOM     23  C   UNL     1      -3.052   1.993  -0.076  1.00  0.00    +0.000 C 
BRANCH  23  24
ATOM     24  C   UNL     1      -1.865   1.655   0.829  1.00  0.00    +0.000 C 
BRANCH  24  25
ATOM     25  C   UNL     1      -0.678   2.582   0.552  1.00  0.00    +0.000 C 
BRANCH  25  26
ATOM     26  C   UNL     1       0.503   2.366   1.504  1.00  0.00    +0.000 C 
BRANCH  26  27
ATOM     27  C   UNL     1       1.194   1.013   1.317  1.00  0.00    +0.000 C 
BRANCH  27  28
ATOM     28  C   UNL     1       2.370   0.790   2.274  1.00  0.00    +0.000 C 
BRANCH  28  29
ATOM     29  C   UNL     1       3.517   1.803   2.183  1.00  0.00    +0.000 C 
BRANCH  29  30
ATOM     30  C   UNL     1       4.174   1.858   0.802  1.00  0.00    +0.000 C 
BRANCH  30  31
ATOM     31  C   UNL     1       5.328   2.863   0.714  1.00  0.00    +0.000 C 
BRANCH  31  32
ATOM     32  C   UNL     1       6.555   2.454   1.533  1.00  0.00    +0.000 C 
BRANCH  32  33
ATOM     33  C   UNL     1       7.714   3.452   1.432  1.00  0.00    +0.000 C 
BRANCH  33  34
ATOM     34  C   UNL     1       8.290   3.670   0.029  1.00  0.00    +0.000 C 
BRANCH  34  35
ATOM     35  C   UNL     1       8.761   2.406  -0.698  1.00  0.00    +0.000 C 
BRANCH  35  36
ATOM     36  C   UNL     1       9.869   1.658   0.048  1.00  0.00    +0.000 C 
BRANCH  36  37
ATOM     37  C   UNL     1      10.479   0.508  -0.762  1.00  0.00    +0.000 C 
BRANCH  37  38
ATOM     38  C   UNL     1       9.492  -0.632  -1.031  1.00  0.00    +0.000 C 
BRANCH  38  39
ATOM     39  C   UNL     1      10.117  -1.816  -1.780  1.00  0.00    +0.000 C 
BRANCH  39  40
ATOM     40  C   UNL     1      10.580  -2.967  -0.880  1.00  0.00    +0.000 C 
BRANCH  40  41
ATOM     41  C   UNL     1      11.778  -2.682   0.028  1.00  0.00    +0.000 C 
BRANCH  41  43
ATOM     42  C   UNL     1      13.596  -3.354  -1.633  1.00  0.00    +0.000 C 
ATOM     43  C   UNL     1      13.070  -2.283  -0.690  1.00  0.00    +0.000 C 
ENDBRANCH  41  43
ENDBRANCH  40  41
ENDBRANCH  39  40
ENDBRANCH  38  39
ENDBRANCH  37  38
ENDBRANCH  36  37
ENDBRANCH  35  36
ENDBRANCH  34  35
ENDBRANCH  33  34
ENDBRANCH  32  33
ENDBRANCH  31  32
ENDBRANCH  30  31
ENDBRANCH  29  30
ENDBRANCH  28  29
ENDBRANCH  27  28
ENDBRANCH  26  27
ENDBRANCH  25  26
ENDBRANCH  24  25
ENDBRANCH  23  24
ENDBRANCH   1  23
TORSDOF 32
