REMARK  Name = /srv/my_project/app/compsite/backup/Dave/CORINA_stuff/newPDBs/SANC00671.pdb
AUTHORGENERATED BY OPEN BABEL 2.3.2
REMARK  23 active torsions:
REMARK  status: ('A' for Active; 'I' for Inactive)
REMARK    1  A    between atoms: C_2  and  O_3
REMARK    2  A    between atoms: O_3  and  C_4
REMARK    3  A    between atoms: C_6  and  O_8
REMARK    4  A    between atoms: C_9  and  O_11
REMARK    5  A    between atoms: C_12  and  C_14
REMARK    6  A    between atoms: C_14  and  O_15
REMARK    7  A    between atoms: C_17  and  O_19
REMARK    8  A    between atoms: O_19  and  C_20
REMARK    9  A    between atoms: C_24  and  C_25
REMARK   10  A    between atoms: C_35  and  C_36
REMARK   11  A    between atoms: C_36  and  O_37
REMARK   12  A    between atoms: C_44  and  O_46
REMARK   13  A    between atoms: C_47  and  C_49
REMARK   14  A    between atoms: C_50  and  C_51
REMARK   15  A    between atoms: C_50  and  C_52
REMARK   16  A    between atoms: C_53  and  C_55
REMARK   17  A    between atoms: C_60  and  C_62
REMARK   18  A    between atoms: C_63  and  O_65
REMARK   19  A    between atoms: O_65  and  C_66
REMARK   20  A    between atoms: C_66  and  C_68
REMARK   21  A    between atoms: C_71  and  O_72
REMARK   22  A    between atoms: C_75  and  O_77
REMARK   23  A    between atoms: C_78  and  O_80
REMARK                            x       y       z     vdW  Elec       q    Type
REMARK                         _______ _______ _______ _____ _____    ______ ____
ROOT
ATOM      1  C   UNL     1       5.229  -1.063  -3.053  1.00  0.00    +0.000 C 
ATOM      2  C   UNL     1       5.952  -0.607  -4.330  1.00  0.00    +0.000 C 
ATOM      3  C   UNL     1       4.987   0.091  -5.280  1.00  0.00    +0.000 C 
ATOM      4  C   UNL     1       4.445   1.353  -4.587  1.00  0.00    +0.000 C 
ATOM      5  O   UNL     1       4.269   1.223  -3.171  1.00  0.00    +0.000 OA
ATOM      6  C   UNL     1       4.046  -0.115  -2.715  1.00  0.00    +0.000 C 
ENDROOT
BRANCH   2   7
ATOM      7  O   UNL     1       6.541  -1.740  -4.993  1.00  0.00    +0.000 OA
ATOM      8  H   UNL     1       6.770  -1.409  -5.886  1.00  0.00    +0.000 HD
ENDBRANCH   2   7
BRANCH   3   9
ATOM      9  O   UNL     1       5.675   0.418  -6.497  1.00  0.00    +0.000 OA
ATOM     10  H   UNL     1       5.057   0.998  -6.996  1.00  0.00    +0.000 HD
ENDBRANCH   3   9
BRANCH   6  11
ATOM     11  O   UNL     1       2.841  -0.628  -3.289  1.00  0.00    +0.000 OA
BRANCH  11  12
ATOM     12  C   UNL     1       1.733  -0.650  -2.378  1.00  0.00    +0.000 C 
ATOM     13  C   UNL     1       1.234   0.763  -2.063  1.00  0.00    +0.000 C 
ATOM     14  C   UNL     1      -0.016   0.730  -1.184  1.00  0.00    +0.000 C 
ATOM     15  C   UNL     1      -1.193  -0.105  -1.767  1.00  0.00    +0.000 C 
ATOM     16  C   UNL     1      -1.776   0.621  -3.003  1.00  0.00    +0.000 C 
ATOM     17  C   UNL     1      -0.658  -1.470  -2.223  1.00  0.00    +0.000 C 
ATOM     18  C   UNL     1      -1.265  -2.632  -1.921  1.00  0.00    +0.000 C 
ATOM     19  C   UNL     1      -2.537  -2.752  -1.143  1.00  0.00    +0.000 C 
ATOM     20  C   UNL     1      -3.286  -1.420  -0.982  1.00  0.00    +0.000 C 
ATOM     21  C   UNL     1      -2.284  -0.282  -0.636  1.00  0.00    +0.000 C 
ATOM     22  C   UNL     1      -2.999   1.033  -0.234  1.00  0.00    +0.000 C 
ATOM     23  C   UNL     1      -4.107   0.838   0.816  1.00  0.00    +0.000 C 
ATOM     24  C   UNL     1      -5.141  -0.209   0.359  1.00  0.00    +0.000 C 
ATOM     25  C   UNL     1      -4.349  -1.521   0.119  1.00  0.00    +0.000 C 
ATOM     26  C   UNL     1      -5.438  -2.571  -0.028  1.00  0.00    +0.000 C 
ATOM     27  C   UNL     1      -6.460  -2.169   1.048  1.00  0.00    +0.000 C 
ATOM     28  O   UNL     1      -7.767  -2.266   0.511  1.00  0.00    +0.000 OA
ATOM     29  C   UNL     1      -8.786  -2.009   1.474  1.00  0.00    +0.000 C 
ATOM     30  C   UNL     1      -8.450  -0.832   2.436  1.00  0.00    +0.000 C 
ATOM     31  C   UNL     1      -7.390   0.115   1.804  1.00  0.00    +0.000 C 
ATOM     32  C   UNL     1      -7.054   1.295   2.723  1.00  0.00    +0.000 C 
ATOM     33  C   UNL     1      -6.119  -0.711   1.476  1.00  0.00    +0.000 C 
ATOM     34  C   UNL     1       0.617  -1.468  -3.038  1.00  0.00    +0.000 C 
BRANCH  30  35
ATOM     35  C   UNL     1      -9.705  -0.169   2.981  1.00  0.00    +0.000 C 
ATOM     36  C   UNL     1     -10.602   0.630   2.368  1.00  0.00    +0.000 C 
ATOM     37  C   UNL     1     -10.581   1.030   0.919  1.00  0.00    +0.000 C 
ATOM     38  C   UNL     1     -11.762   1.205   3.141  1.00  0.00    +0.000 C 
ENDBRANCH  30  35
BRANCH  29  39
ATOM     39  O   UNL     1      -9.083  -3.206   2.186  1.00  0.00    +0.000 OA
ATOM     40  H   UNL     1      -8.436  -3.290   2.901  1.00  0.00    +0.000 HD
ENDBRANCH  29  39
BRANCH  24  41
ATOM     41  C   UNL     1      -5.907   0.276  -0.907  1.00  0.00    +0.000 C 
BRANCH  41  42
ATOM     42  O   UNL     1      -6.387   1.606  -0.732  1.00  0.00    +0.000 OA
ATOM     43  H   UNL     1      -6.896   1.831  -1.530  1.00  0.00    +0.000 HD
ENDBRANCH  41  42
ENDBRANCH  24  41
ENDBRANCH  11  12
ENDBRANCH   6  11
BRANCH   4  44
ATOM     44  C   UNL     1       3.157   1.842  -5.261  1.00  0.00    +0.000 C 
BRANCH  44  45
ATOM     45  O   UNL     1       3.382   2.067  -6.654  1.00  0.00    +0.000 OA
ATOM     46  H   UNL     1       2.553   2.436  -7.010  1.00  0.00    +0.000 HD
ENDBRANCH  44  45
ENDBRANCH   4  44
BRANCH   1  47
ATOM     47  O   UNL     1       6.230  -1.093  -2.008  1.00  0.00    +0.000 OA
BRANCH  47  48
ATOM     48  C   UNL     1       5.930  -2.024  -0.966  1.00  0.00    +0.000 C 
ATOM     49  O   UNL     1       5.005  -1.467  -0.029  1.00  0.00    +0.000 OA
ATOM     50  C   UNL     1       5.522  -0.348   0.703  1.00  0.00    +0.000 C 
ATOM     51  C   UNL     1       4.400   0.136   1.616  1.00  0.00    +0.000 C 
ATOM     52  C   UNL     1       6.796  -0.707   1.485  1.00  0.00    +0.000 C 
ATOM     53  C   UNL     1       7.836  -1.294   0.519  1.00  0.00    +0.000 C 
ATOM     54  C   UNL     1       7.243  -2.453  -0.283  1.00  0.00    +0.000 C 
BRANCH  54  55
ATOM     55  O   UNL     1       7.024  -3.574   0.591  1.00  0.00    +0.000 OA
ATOM     56  H   UNL     1       7.749  -3.551   1.248  1.00  0.00    +0.000 HD
ENDBRANCH  54  55
BRANCH  53  57
ATOM     57  O   UNL     1       8.967  -1.786   1.265  1.00  0.00    +0.000 OA
ATOM     58  H   UNL     1       9.696  -1.912   0.632  1.00  0.00    +0.000 HD
ENDBRANCH  53  57
BRANCH  52  59
ATOM     59  O   UNL     1       7.373   0.487   2.064  1.00  0.00    +0.000 OA
BRANCH  59  60
ATOM     60  C   UNL     1       7.218   0.651   3.400  1.00  0.00    +0.000 C 
ATOM     61  O   UNL     1       6.575  -0.071   4.144  1.00  0.00    +0.000 OA
BRANCH  60  62
ATOM     62  C   UNL     1       7.930   1.875   3.859  1.00  0.00    +0.000 A 
ATOM     63  C   UNL     1       8.687   2.678   2.991  1.00  0.00    +0.000 A 
ATOM     64  C   UNL     1       9.334   3.820   3.472  1.00  0.00    +0.000 A 
ATOM     65  C   UNL     1       9.223   4.155   4.818  1.00  0.00    +0.000 A 
ATOM     66  C   UNL     1       8.478   3.370   5.690  1.00  0.00    +0.000 A 
ATOM     67  C   UNL     1       7.831   2.229   5.212  1.00  0.00    +0.000 A 
BRANCH  65  68
ATOM     68  O   UNL     1       9.838   5.260   5.328  1.00  0.00    +0.000 OA
ATOM     69  H   UNL     1      10.323   5.707   4.616  1.00  0.00    +0.000 HD
ENDBRANCH  65  68
ENDBRANCH  60  62
ENDBRANCH  59  60
ENDBRANCH  52  59
ENDBRANCH  47  48
ENDBRANCH   1  47
TORSDOF 18
