REMARK  Name = SANCDB_00841_minRM1.pdb
AUTHORGENERATED BY OPEN BABEL 2.3.2
REMARK  11 active torsions:
REMARK  status: ('A' for Active; 'I' for Inactive)
REMARK    1  A    between atoms: C_3  and  O_32
REMARK    2  A    between atoms: C_6  and  C_7
REMARK    3  A    between atoms: C_8  and  O_20
REMARK    4  A    between atoms: C_12  and  O_19
REMARK    5  A    between atoms: C_14  and  O_18
REMARK    6  A    between atoms: O_20  and  C_21
REMARK    7  A    between atoms: C_22  and  O_31
REMARK    8  A    between atoms: C_23  and  O_30
REMARK    9  A    between atoms: C_24  and  O_29
REMARK   10  A    between atoms: C_25  and  C_27
REMARK   11  A    between atoms: C_27  and  O_28
REMARK                            x       y       z     vdW  Elec       q    Type
REMARK                         _______ _______ _______ _____ _____    ______ ____
ROOT
ATOM      1  C   UNL     1      -1.936  -0.434  -0.152  1.00  0.00    +0.000 A 
ATOM      2  C   UNL     1      -0.670  -0.465  -0.607  1.00  0.00    +0.000 A 
ATOM      3  C   UNL     1      -0.156   0.740  -1.331  1.00  0.00    +0.000 A 
ATOM      4  O   UNL     1       0.926   0.707  -1.907  1.00  0.00    +0.000 OA
ATOM      5  C   UNL     1      -1.018   1.942  -1.315  1.00  0.00    +0.000 A 
ATOM      6  C   UNL     1      -0.607   3.186  -1.815  1.00  0.00    +0.000 A 
ATOM      7  C   UNL     1      -1.476   4.279  -1.793  1.00  0.00    +0.000 A 
ATOM      8  C   UNL     1      -2.755   4.129  -1.270  1.00  0.00    +0.000 A 
ATOM      9  C   UNL     1      -3.178   2.907  -0.761  1.00  0.00    +0.000 A 
ATOM     10  C   UNL     1      -2.301   1.818  -0.782  1.00  0.00    +0.000 A 
ATOM     11  O   UNL     1      -2.786   0.651  -0.251  1.00  0.00    +0.000 OA
ENDROOT
BRANCH   1  17
ATOM     12  C   UNL     1      -3.047  -1.415   1.850  1.00  0.00    +0.000 A 
ATOM     13  C   UNL     1      -3.642  -2.485   2.525  1.00  0.00    +0.000 A 
ATOM     14  C   UNL     1      -3.747  -3.718   1.891  1.00  0.00    +0.000 A 
ATOM     15  C   UNL     1      -3.271  -3.898   0.598  1.00  0.00    +0.000 A 
ATOM     16  C   UNL     1      -2.676  -2.829  -0.075  1.00  0.00    +0.000 A 
ATOM     17  C   UNL     1      -2.551  -1.578   0.547  1.00  0.00    +0.000 A 
BRANCH  14  18
ATOM     18  O   UNL     1      -4.320  -4.789   2.510  1.00  0.00    +0.000 OA
ATOM     19  H   UNL     1      -4.599  -4.522   3.401  1.00  0.00    +0.000 HD
ENDBRANCH  14  18
ENDBRANCH   1  17
BRANCH   8  20
ATOM     20  O   UNL     1      -3.571   5.220  -1.271  1.00  0.00    +0.000 OA
ATOM     21  H   UNL     1      -4.435   4.976  -0.899  1.00  0.00    +0.000 HD
ENDBRANCH   8  20
BRANCH   6  22
ATOM     22  O   UNL     1       0.652   3.357  -2.314  1.00  0.00    +0.000 OA
ATOM     23  H   UNL     1       0.761   4.257  -2.664  1.00  0.00    +0.000 HD
ENDBRANCH   6  22
BRANCH   2  24
ATOM     24  O   UNL     1       0.129  -1.589  -0.453  1.00  0.00    +0.000 OA
BRANCH  24  25
ATOM     25  C   UNL     1       1.439  -1.358   0.116  1.00  0.00    +0.000 C 
ATOM     26  C   UNL     1       2.484  -1.721  -0.966  1.00  0.00    +0.000 C 
ATOM     27  C   UNL     1       3.890  -1.349  -0.503  1.00  0.00    +0.000 C 
ATOM     28  C   UNL     1       3.934   0.095   0.013  1.00  0.00    +0.000 C 
ATOM     29  C   UNL     1       2.921   0.214   1.166  1.00  0.00    +0.000 C 
ATOM     30  O   UNL     1       1.594  -0.059   0.697  1.00  0.00    +0.000 OA
BRANCH  28  31
ATOM     31  O   UNL     1       3.631   1.040  -1.026  1.00  0.00    +0.000 OA
ATOM     32  H   UNL     1       2.696   0.937  -1.310  1.00  0.00    +0.000 HD
ENDBRANCH  28  31
BRANCH  27  33
ATOM     33  O   UNL     1       4.828  -1.561  -1.565  1.00  0.00    +0.000 OA
ATOM     34  H   UNL     1       4.585  -2.418  -1.964  1.00  0.00    +0.000 HD
ENDBRANCH  27  33
BRANCH  26  35
ATOM     35  O   UNL     1       2.459  -3.136  -1.253  1.00  0.00    +0.000 OA
ATOM     36  H   UNL     1       1.554  -3.327  -1.566  1.00  0.00    +0.000 HD
ENDBRANCH  26  35
BRANCH  29  37
ATOM     37  C   UNL     1       2.929   1.614   1.787  1.00  0.00    +0.000 C 
BRANCH  37  38
ATOM     38  O   UNL     1       4.139   1.831   2.505  1.00  0.00    +0.000 OA
ATOM     39  H   UNL     1       4.184   2.785   2.695  1.00  0.00    +0.000 HD
ENDBRANCH  37  38
ENDBRANCH  29  37
ENDBRANCH  24  25
ENDBRANCH   2  24
TORSDOF 11
