REMARK  Name = SANCDB_00950_minRM1.pdb
AUTHORGENERATED BY OPEN BABEL 2.3.2
REMARK  5 active torsions:
REMARK  status: ('A' for Active; 'I' for Inactive)
REMARK    1  A    between atoms: C_3  and  O_21
REMARK    2  A    between atoms: C_4  and  O_20
REMARK    3  A    between atoms: C_6  and  C_7
REMARK    4  A    between atoms: C_12  and  O_19
REMARK    5  A    between atoms: C_14  and  O_18
REMARK                            x       y       z     vdW  Elec       q    Type
REMARK                         _______ _______ _______ _____ _____    ______ ____
ROOT
ATOM      1  C   UNL     1      -0.342   0.529  -0.376  1.00  0.00    +0.000 A 
ATOM      2  C   UNL     1       0.219   1.734  -0.561  1.00  0.00    +0.000 A 
ATOM      3  O   UNL     1       1.559   2.036  -0.523  1.00  0.00    +0.000 OA
ATOM      4  C   UNL     1       2.438   1.012  -0.275  1.00  0.00    +0.000 A 
ATOM      5  C   UNL     1       3.795   1.333  -0.253  1.00  0.00    +0.000 A 
ATOM      6  C   UNL     1       4.732   0.334  -0.004  1.00  0.00    +0.000 A 
ATOM      7  C   UNL     1       4.335  -0.981   0.225  1.00  0.00    +0.000 A 
ATOM      8  C   UNL     1       2.977  -1.293   0.203  1.00  0.00    +0.000 A 
ATOM      9  C   UNL     1       2.024  -0.298  -0.047  1.00  0.00    +0.000 A 
ATOM     10  C   UNL     1       0.583  -0.598  -0.075  1.00  0.00    +0.000 A 
ATOM     11  O   UNL     1       0.199  -1.744   0.148  1.00  0.00    +0.000 OA
ENDROOT
BRANCH   1  17
ATOM     12  C   UNL     1      -2.552   0.901  -1.504  1.00  0.00    +0.000 A 
ATOM     13  C   UNL     1      -3.940   0.746  -1.564  1.00  0.00    +0.000 A 
ATOM     14  C   UNL     1      -4.584   0.040  -0.561  1.00  0.00    +0.000 A 
ATOM     15  C   UNL     1      -3.865  -0.515   0.492  1.00  0.00    +0.000 A 
ATOM     16  C   UNL     1      -2.483  -0.360   0.563  1.00  0.00    +0.000 A 
ATOM     17  C   UNL     1      -1.808   0.358  -0.439  1.00  0.00    +0.000 A 
BRANCH  15  18
ATOM     18  O   UNL     1      -4.562  -1.212   1.440  1.00  0.00    +0.000 OA
ATOM     19  H   UNL     1      -3.921  -1.608   2.056  1.00  0.00    +0.000 HD
ENDBRANCH  15  18
BRANCH  14  20
ATOM     20  O   UNL     1      -5.939  -0.115  -0.620  1.00  0.00    +0.000 OA
ATOM     21  H   UNL     1      -6.159  -0.644   0.173  1.00  0.00    +0.000 HD
ENDBRANCH  14  20
ENDBRANCH   1  17
BRANCH   8  22
ATOM     22  O   UNL     1       2.647  -2.602   0.435  1.00  0.00    +0.000 OA
ATOM     23  H   UNL     1       1.667  -2.683   0.383  1.00  0.00    +0.000 HD
ENDBRANCH   8  22
BRANCH   6  24
ATOM     24  O   UNL     1       6.048   0.689   0.008  1.00  0.00    +0.000 OA
ATOM     25  H   UNL     1       6.585  -0.101   0.188  1.00  0.00    +0.000 HD
ENDBRANCH   6  24
TORSDOF 5
