REMARK  Name = SANCDB_00750_minRM1.pdb
AUTHORGENERATED BY OPEN BABEL 2.3.2
REMARK  6 active torsions:
REMARK  status: ('A' for Active; 'I' for Inactive)
REMARK    1  A    between atoms: C_11  and  O_12
REMARK    2  A    between atoms: O_12  and  C_13
REMARK    3  A    between atoms: C_14  and  O_15
REMARK    4  A    between atoms: O_15  and  C_16
REMARK    5  A    between atoms: C_17  and  O_18
REMARK    6  A    between atoms: O_18  and  C_19
REMARK                            x       y       z     vdW  Elec       q    Type
REMARK                         _______ _______ _______ _____ _____    ______ ____
ROOT
ATOM      1  N   UNL     1       1.571   1.334   0.635  1.00  0.00    +0.000 N 
ATOM      2  C   UNL     1       2.792   0.720   0.319  1.00  0.00    +0.000 A 
ATOM      3  C   UNL     1       4.005   1.313   0.684  1.00  0.00    +0.000 A 
ATOM      4  C   UNL     1       5.217   0.669   0.415  1.00  0.00    +0.000 A 
ATOM      5  C   UNL     1       5.225  -0.579  -0.205  1.00  0.00    +0.000 A 
ATOM      6  C   UNL     1       4.021  -1.191  -0.551  1.00  0.00    +0.000 A 
ATOM      7  C   UNL     1       2.809  -0.544  -0.282  1.00  0.00    +0.000 A 
ATOM      8  C   UNL     1       1.519  -1.194  -0.629  1.00  0.00    +0.000 A 
ATOM      9  O   UNL     1       1.541  -2.337  -1.072  1.00  0.00    +0.000 OA
ATOM     10  C   UNL     1       0.245  -0.443  -0.402  1.00  0.00    +0.000 A 
ATOM     11  C   UNL     1      -1.011  -0.947  -0.771  1.00  0.00    +0.000 A 
ATOM     12  C   UNL     1      -2.177  -0.201  -0.516  1.00  0.00    +0.000 A 
ATOM     13  C   UNL     1      -2.095   1.061   0.098  1.00  0.00    +0.000 A 
ATOM     14  C   UNL     1      -0.841   1.548   0.479  1.00  0.00    +0.000 A 
ATOM     15  C   UNL     1       0.330   0.821   0.211  1.00  0.00    +0.000 A 
ATOM     16  H   UNL     1       1.611   2.329   0.821  1.00  0.00    +0.000 HD
ENDROOT
BRANCH  11  17
ATOM     17  O   UNL     1      -1.125  -2.130  -1.460  1.00  0.00    +0.000 OA
ATOM     18  C   UNL     1      -1.360  -3.216  -0.565  1.00  0.00    +0.000 C 
ENDBRANCH  11  17
BRANCH  12  19
ATOM     19  O   UNL     1      -3.365  -0.728  -0.970  1.00  0.00    +0.000 OA
ATOM     20  C   UNL     1      -4.344  -0.876   0.056  1.00  0.00    +0.000 C 
ENDBRANCH  12  19
BRANCH  13  21
ATOM     21  O   UNL     1      -3.269   1.744   0.281  1.00  0.00    +0.000 OA
ATOM     22  C   UNL     1      -3.190   3.113   0.652  1.00  0.00    +0.000 C 
ENDBRANCH  13  21
TORSDOF 3
