REMARK  Name = /srv/my_project/app/compsite/backup/Dave/CORINA_stuff/newPDBs/SANC00372.pdb
AUTHORGENERATED BY OPEN BABEL 2.3.2
REMARK  11 active torsions:
REMARK  status: ('A' for Active; 'I' for Inactive)
REMARK    1  A    between atoms: C_1  and  C_2
REMARK    2  A    between atoms: C_2  and  C_3
REMARK    3  A    between atoms: C_2  and  C_4
REMARK    4  A    between atoms: C_10  and  C_11
REMARK    5  A    between atoms: C_10  and  C_12
REMARK    6  A    between atoms: C_12  and  O_13
REMARK    7  A    between atoms: O_13  and  C_14
REMARK    8  A    between atoms: C_14  and  C_16
REMARK    9  A    between atoms: C_19  and  O_20
REMARK   10  A    between atoms: C_26  and  C_27
REMARK   11  A    between atoms: C_29  and  O_30
REMARK                            x       y       z     vdW  Elec       q    Type
REMARK                         _______ _______ _______ _____ _____    ______ ____
ROOT
ATOM      1  C   UNL     1       5.320   0.653  -0.315  1.00  0.00    +0.000 C 
ATOM      2  C   UNL     1       4.265   1.437  -0.592  1.00  0.00    +0.000 C 
ATOM      3  C   UNL     1       2.890   0.974  -0.474  1.00  0.00    +0.000 C 
ATOM      4  C   UNL     1       1.904   1.845  -0.738  1.00  0.00    +0.000 C 
ATOM      5  C   UNL     1       0.514   1.527  -0.581  1.00  0.00    +0.000 C 
ATOM      6  C   UNL     1       0.085   0.292  -0.260  1.00  0.00    +0.000 C 
ATOM      7  C   UNL     1      -1.412   0.050   0.055  1.00  0.00    +0.000 C 
ATOM      8  C   UNL     1      -1.830   0.945   1.251  1.00  0.00    +0.000 C 
ATOM      9  C   UNL     1      -1.708  -1.417   0.457  1.00  0.00    +0.000 C 
ATOM     10  C   UNL     1      -0.706  -2.022   1.429  1.00  0.00    +0.000 C 
ATOM     11  C   UNL     1       0.734  -1.531   1.274  1.00  0.00    +0.000 C 
ATOM     12  C   UNL     1       1.088  -0.875  -0.086  1.00  0.00    +0.000 C 
ATOM     13  C   UNL     1       0.947  -1.850  -1.280  1.00  0.00    +0.000 C 
ATOM     14  C   UNL     1       2.581  -0.409  -0.085  1.00  0.00    +0.000 C 
ATOM     15  C   UNL     1       3.626  -1.226   0.177  1.00  0.00    +0.000 C 
ATOM     16  C   UNL     1       5.046  -0.747   0.109  1.00  0.00    +0.000 C 
ATOM     17  O   UNL     1       5.935  -1.549   0.392  1.00  0.00    +0.000 OA
ENDROOT
BRANCH   1  19
ATOM     18  C   UNL     1       7.474   1.139   0.921  1.00  0.00    +0.000 C 
ATOM     19  C   UNL     1       6.748   1.144  -0.426  1.00  0.00    +0.000 C 
ATOM     20  C   UNL     1       7.546   0.386  -1.489  1.00  0.00    +0.000 C 
ENDBRANCH   1  19
BRANCH  15  21
ATOM     21  O   UNL     1       3.475  -2.568   0.486  1.00  0.00    +0.000 OA
ATOM     22  H   UNL     1       4.391  -2.896   0.624  1.00  0.00    +0.000 HD
ENDBRANCH  15  21
BRANCH   7  23
ATOM     23  C   UNL     1      -2.282   0.398  -1.190  1.00  0.00    +0.000 C 
BRANCH  23  24
ATOM     24  O   UNL     1      -3.671   0.085  -0.974  1.00  0.00    +0.000 OA
BRANCH  24  25
ATOM     25  C   UNL     1      -4.507   1.131  -0.763  1.00  0.00    +0.000 C 
ATOM     26  O   UNL     1      -4.193   2.310  -0.736  1.00  0.00    +0.000 OA
BRANCH  25  27
ATOM     27  C   UNL     1      -5.899   0.649  -0.551  1.00  0.00    +0.000 A 
ATOM     28  C   UNL     1      -6.237  -0.712  -0.567  1.00  0.00    +0.000 A 
ATOM     29  C   UNL     1      -7.560  -1.107  -0.359  1.00  0.00    +0.000 A 
ATOM     30  C   UNL     1      -8.542  -0.148  -0.135  1.00  0.00    +0.000 A 
ATOM     31  C   UNL     1      -8.226   1.207  -0.115  1.00  0.00    +0.000 A 
ATOM     32  C   UNL     1      -6.902   1.604  -0.323  1.00  0.00    +0.000 A 
BRANCH  30  33
ATOM     33  O   UNL     1      -9.818  -0.582   0.063  1.00  0.00    +0.000 OA
ATOM     34  H   UNL     1     -10.393   0.188   0.206  1.00  0.00    +0.000 HD
ENDBRANCH  30  33
ENDBRANCH  25  27
ENDBRANCH  24  25
ENDBRANCH  23  24
ENDBRANCH   7  23
TORSDOF 7
