REMARK  Name = SANCDB_00818_minRM1.pdb
AUTHORGENERATED BY OPEN BABEL 2.3.2
REMARK  5 active torsions:
REMARK  status: ('A' for Active; 'I' for Inactive)
REMARK    1  A    between atoms: C_8  and  C_9
REMARK    2  A    between atoms: C_10  and  C_11
REMARK    3  A    between atoms: C_18  and  O_19
REMARK    4  A    between atoms: C_22  and  C_23
REMARK    5  A    between atoms: C_26  and  O_27
REMARK                            x       y       z     vdW  Elec       q    Type
REMARK                         _______ _______ _______ _____ _____    ______ ____
ROOT
ATOM      1  C   UNL     1      -3.313   0.780  -0.587  1.00  0.00    +0.000 C 
ATOM      2  C   UNL     1      -2.499   1.721   0.306  1.00  0.00    +0.000 C 
ATOM      3  C   UNL     1      -1.119   1.958  -0.287  1.00  0.00    +0.000 C 
ATOM      4  C   UNL     1      -0.382   0.661  -0.671  1.00  0.00    +0.000 C 
ATOM      5  C   UNL     1      -1.142  -0.626  -0.263  1.00  0.00    +0.000 C 
ATOM      6  C   UNL     1      -0.336  -1.859  -0.727  1.00  0.00    +0.000 C 
ATOM      7  C   UNL     1       1.073  -1.873  -0.140  1.00  0.00    +0.000 C 
ATOM      8  C   UNL     1       1.900  -0.600  -0.468  1.00  0.00    +0.000 C 
ATOM      9  C   UNL     1       2.333  -0.659  -1.946  1.00  0.00    +0.000 C 
ATOM     10  C   UNL     1       3.111  -0.482   0.526  1.00  0.00    +0.000 C 
ATOM     11  C   UNL     1       2.418   0.043   1.810  1.00  0.00    +0.000 C 
ATOM     12  C   UNL     1       1.267   0.940   1.347  1.00  0.00    +0.000 C 
ATOM     13  C   UNL     1       1.084   0.685  -0.169  1.00  0.00    +0.000 C 
ATOM     14  C   UNL     1      -2.648  -0.635  -0.751  1.00  0.00    +0.000 C 
ATOM     15  C   UNL     1      -2.744  -1.021  -2.250  1.00  0.00    +0.000 C 
ATOM     16  C   UNL     1      -3.459  -1.715   0.039  1.00  0.00    +0.000 C 
ATOM     17  C   UNL     1      -3.956  -1.217   1.395  1.00  0.00    +0.000 C 
ATOM     18  C   UNL     1      -4.904  -0.026   1.247  1.00  0.00    +0.000 C 
ATOM     19  C   UNL     1      -4.766   0.685  -0.099  1.00  0.00    +0.000 C 
ENDROOT
BRANCH  10  20
ATOM     20  C   UNL     1       4.301   0.340   0.030  1.00  0.00    +0.000 A 
ATOM     21  C   UNL     1       5.495  -0.390  -0.345  1.00  0.00    +0.000 A 
ATOM     22  C   UNL     1       6.584   0.247  -0.788  1.00  0.00    +0.000 A 
ATOM     23  C   UNL     1       6.610   1.715  -0.909  1.00  0.00    +0.000 A 
ATOM     24  O   UNL     1       7.613   2.287  -1.320  1.00  0.00    +0.000 OA
ATOM     25  O   UNL     1       5.474   2.385  -0.545  1.00  0.00    +0.000 OA
ATOM     26  C   UNL     1       4.353   1.675  -0.087  1.00  0.00    +0.000 A 
ENDBRANCH  10  20
BRANCH  11  27
ATOM     27  O   UNL     1       3.271   0.668   2.752  1.00  0.00    +0.000 OA
ATOM     28  H   UNL     1       3.623   1.489   2.370  1.00  0.00    +0.000 HD
ENDBRANCH  11  27
BRANCH  18  29
ATOM     29  O   UNL     1      -6.247  -0.488   1.383  1.00  0.00    +0.000 OA
ATOM     30  H   UNL     1      -6.832   0.286   1.311  1.00  0.00    +0.000 HD
ENDBRANCH  18  29
TORSDOF 3
