REMARK  Name = SANCDB_01104_minRM1.pdb
AUTHORGENERATED BY OPEN BABEL 2.3.2
REMARK  3 active torsions:
REMARK  status: ('A' for Active; 'I' for Inactive)
REMARK    1  A    between atoms: C_1  and  C_2
REMARK    2  A    between atoms: C_7  and  C_8
REMARK    3  A    between atoms: C_7  and  C_9
REMARK                            x       y       z     vdW  Elec       q    Type
REMARK                         _______ _______ _______ _____ _____    ______ ____
ROOT
ATOM      1  C   UNL     1       3.674   0.131   0.041  1.00  0.00    +0.000 C 
ATOM      2  C   UNL     1       2.191  -0.067   0.152  1.00  0.00    +0.000 C 
ATOM      3  C   UNL     1       1.553  -0.006   1.332  1.00  0.00    +0.000 C 
ATOM      4  C   UNL     1       0.079  -0.137   1.454  1.00  0.00    +0.000 C 
ATOM      5  O   UNL     1      -0.437  -0.163   2.565  1.00  0.00    +0.000 OA
ATOM      6  C   UNL     1      -0.696  -0.268   0.170  1.00  0.00    +0.000 C 
ATOM      7  C   UNL     1      -1.967   0.191   0.067  1.00  0.00    +0.000 C 
ATOM      8  C   UNL     1      -2.667   0.985   1.147  1.00  0.00    +0.000 C 
ATOM      9  C   UNL     1      -2.843  -0.024  -1.142  1.00  0.00    +0.000 C 
ATOM     10  C   UNL     1       0.083  -0.977  -0.909  1.00  0.00    +0.000 C 
ATOM     11  C   UNL     1       1.455  -0.336  -1.134  1.00  0.00    +0.000 C 
ENDROOT
TORSDOF 0
