REMARK  Name = /srv/my_project/app/compsite/backup/Dave/CORINA_stuff/newPDBs/SANC00406.pdb
AUTHORGENERATED BY OPEN BABEL 2.3.2
REMARK  24 active torsions:
REMARK  status: ('A' for Active; 'I' for Inactive)
REMARK    1  A    between atoms: C_2  and  O_3
REMARK    2  A    between atoms: O_3  and  C_4
REMARK    3  A    between atoms: C_15  and  O_17
REMARK    4  A    between atoms: C_19  and  O_21
REMARK    5  A    between atoms: O_21  and  C_22
REMARK    6  A    between atoms: C_25  and  C_27
REMARK    7  A    between atoms: C_28  and  O_30
REMARK    8  A    between atoms: C_31  and  O_33
REMARK    9  A    between atoms: C_34  and  O_36
REMARK   10  A    between atoms: C_37  and  C_38
REMARK   11  A    between atoms: C_43  and  C_44
REMARK   12  A    between atoms: C_45  and  C_47
REMARK   13  A    between atoms: C_47  and  C_49
REMARK   14  A    between atoms: C_47  and  C_50
REMARK   15  A    between atoms: C_50  and  O_52
REMARK   16  A    between atoms: C_50  and  C_53
REMARK   17  A    between atoms: C_53  and  C_54
REMARK   18  A    between atoms: C_54  and  C_55
REMARK   19  A    between atoms: C_55  and  C_56
REMARK   20  A    between atoms: C_55  and  C_57
REMARK   21  A    between atoms: C_59  and  C_61
REMARK   22  A    between atoms: C_62  and  O_64
REMARK   23  A    between atoms: C_65  and  O_67
REMARK   24  A    between atoms: C_68  and  O_70
REMARK                            x       y       z     vdW  Elec       q    Type
REMARK                         _______ _______ _______ _____ _____    ______ ____
ROOT
ATOM      1  C   UNL     1       2.171   1.319   0.426  1.00  0.00    +0.000 C 
ATOM      2  C   UNL     1       1.329   1.908  -0.720  1.00  0.00    +0.000 C 
ATOM      3  C   UNL     1      -0.021   1.238  -0.554  1.00  0.00    +0.000 C 
ATOM      4  C   UNL     1      -1.030   1.373  -1.704  1.00  0.00    +0.000 C 
ATOM      5  C   UNL     1      -1.291   2.853  -2.012  1.00  0.00    +0.000 C 
ATOM      6  C   UNL     1      -2.474   3.071  -2.894  1.00  0.00    +0.000 C 
ATOM      7  C   UNL     1      -3.422   2.151  -3.143  1.00  0.00    +0.000 C 
ATOM      8  C   UNL     1      -4.560   2.487  -4.081  1.00  0.00    +0.000 C 
ATOM      9  C   UNL     1      -5.916   2.235  -3.427  1.00  0.00    +0.000 C 
ATOM     10  C   UNL     1      -6.007   0.811  -2.899  1.00  0.00    +0.000 C 
ATOM     11  C   UNL     1      -4.878   0.492  -1.906  1.00  0.00    +0.000 C 
ATOM     12  C   UNL     1      -3.436   0.747  -2.501  1.00  0.00    +0.000 C 
ATOM     13  C   UNL     1      -3.117  -0.282  -3.614  1.00  0.00    +0.000 C 
ATOM     14  C   UNL     1      -2.357   0.651  -1.329  1.00  0.00    +0.000 C 
ATOM     15  C   UNL     1      -2.076  -0.784  -0.810  1.00  0.00    +0.000 C 
ATOM     16  C   UNL     1      -0.980  -0.867   0.268  1.00  0.00    +0.000 C 
ATOM     17  C   UNL     1       0.341  -0.220  -0.190  1.00  0.00    +0.000 C 
ATOM     18  C   UNL     1       0.950  -1.026  -1.360  1.00  0.00    +0.000 C 
ATOM     19  C   UNL     1       1.421   0.030   0.926  1.00  0.00    +0.000 C 
ENDROOT
BRANCH  19  20
ATOM     20  C   UNL     1       2.323  -1.175   1.384  1.00  0.00    +0.000 C 
ATOM     21  C   UNL     1       1.460  -2.239   2.082  1.00  0.00    +0.000 C 
BRANCH  20  22
ATOM     22  C   UNL     1       3.522  -0.742   2.282  1.00  0.00    +0.000 C 
BRANCH  22  23
ATOM     23  O   UNL     1       3.114   0.262   3.216  1.00  0.00    +0.000 OA
ATOM     24  H   UNL     1       2.520  -0.169   3.857  1.00  0.00    +0.000 HD
ENDBRANCH  22  23
BRANCH  22  25
ATOM     25  C   UNL     1       4.284  -1.838   3.046  1.00  0.00    +0.000 C 
BRANCH  25  26
ATOM     26  C   UNL     1       4.928  -2.877   2.123  1.00  0.00    +0.000 C 
BRANCH  26  27
ATOM     27  C   UNL     1       5.815  -3.891   2.869  1.00  0.00    +0.000 C 
ATOM     28  C   UNL     1       6.549  -4.779   1.861  1.00  0.00    +0.000 C 
ATOM     29  C   UNL     1       5.014  -4.764   3.836  1.00  0.00    +0.000 C 
ENDBRANCH  26  27
ENDBRANCH  25  26
ENDBRANCH  22  25
ENDBRANCH  20  22
ENDBRANCH  19  20
BRANCH   9  30
ATOM     30  O   UNL     1      -6.961   2.429  -4.377  1.00  0.00    +0.000 OA
ATOM     31  H   UNL     1      -6.912   3.350  -4.685  1.00  0.00    +0.000 HD
ENDBRANCH   9  30
BRANCH  11  32
ATOM     32  O   UNL     1      -5.021  -0.881  -1.516  1.00  0.00    +0.000 OA
BRANCH  32  33
ATOM     33  C   UNL     1      -5.898  -1.074  -0.396  1.00  0.00    +0.000 C 
ATOM     34  O   UNL     1      -5.328  -0.496   0.778  1.00  0.00    +0.000 OA
ATOM     35  C   UNL     1      -5.631  -1.161   2.013  1.00  0.00    +0.000 C 
ATOM     36  C   UNL     1      -5.519  -0.122   3.123  1.00  0.00    +0.000 C 
ATOM     37  C   UNL     1      -7.008  -1.836   1.984  1.00  0.00    +0.000 C 
ATOM     38  C   UNL     1      -7.033  -2.921   0.898  1.00  0.00    +0.000 C 
ATOM     39  C   UNL     1      -6.098  -2.594  -0.269  1.00  0.00    +0.000 C 
BRANCH  39  40
ATOM     40  O   UNL     1      -6.621  -3.172  -1.477  1.00  0.00    +0.000 OA
ATOM     41  H   UNL     1      -6.066  -2.802  -2.194  1.00  0.00    +0.000 HD
ENDBRANCH  39  40
BRANCH  38  42
ATOM     42  O   UNL     1      -8.387  -3.070   0.441  1.00  0.00    +0.000 OA
ATOM     43  H   UNL     1      -8.304  -3.454  -0.459  1.00  0.00    +0.000 HD
ENDBRANCH  38  42
BRANCH  37  44
ATOM     44  O   UNL     1      -7.345  -2.421   3.243  1.00  0.00    +0.000 OA
ATOM     45  H   UNL     1      -8.217  -2.842   3.114  1.00  0.00    +0.000 HD
ENDBRANCH  37  44
ENDBRANCH  32  33
ENDBRANCH  11  32
BRANCH   1  46
ATOM     46  O   UNL     1       3.489   1.049  -0.029  1.00  0.00    +0.000 OA
BRANCH  46  47
ATOM     47  C   UNL     1       4.301   2.222  -0.185  1.00  0.00    +0.000 C 
ATOM     48  O   UNL     1       5.061   2.036  -1.384  1.00  0.00    +0.000 OA
ATOM     49  C   UNL     1       6.358   2.642  -1.413  1.00  0.00    +0.000 C 
ATOM     50  C   UNL     1       6.719   2.866  -2.878  1.00  0.00    +0.000 C 
ATOM     51  C   UNL     1       6.399   3.938  -0.602  1.00  0.00    +0.000 C 
ATOM     52  C   UNL     1       6.120   3.627   0.873  1.00  0.00    +0.000 C 
ATOM     53  C   UNL     1       5.187   2.422   1.066  1.00  0.00    +0.000 C 
BRANCH  53  54
ATOM     54  O   UNL     1       4.450   2.637   2.283  1.00  0.00    +0.000 OA
ATOM     55  H   UNL     1       4.014   1.787   2.519  1.00  0.00    +0.000 HD
ENDBRANCH  53  54
BRANCH  52  56
ATOM     56  O   UNL     1       5.563   4.808   1.481  1.00  0.00    +0.000 OA
ATOM     57  H   UNL     1       5.047   4.465   2.244  1.00  0.00    +0.000 HD
ENDBRANCH  52  56
BRANCH  51  58
ATOM     58  O   UNL     1       7.658   4.605  -0.711  1.00  0.00    +0.000 OA
ATOM     59  H   UNL     1       7.591   5.389  -0.131  1.00  0.00    +0.000 HD
ENDBRANCH  51  58
ENDBRANCH  46  47
ENDBRANCH   1  46
TORSDOF 17
