REMARK  Name = 
REMARK  13 active torsions:
REMARK  status: ('A' for Active; 'I' for Inactive)
REMARK    1  A    between atoms: C_1  and  C_2
REMARK    2  A    between atoms: C_2  and  C_19
REMARK    3  A    between atoms: C_3  and  C_4
REMARK    4  A    between atoms: C_4  and  C_5
REMARK    5  A    between atoms: C_5  and  C_6
REMARK    6  A    between atoms: C_6  and  C_7
REMARK    7  A    between atoms: C_12  and  O_13
REMARK    8  A    between atoms: C_14  and  C_15
REMARK    9  A    between atoms: C_19  and  C_20
REMARK   10  A    between atoms: C_20  and  C_22
REMARK   11  A    between atoms: C_22  and  C_23
REMARK   12  A    between atoms: C_23  and  C_24
REMARK   13  A    between atoms: C_23  and  C_25
REMARK                            x       y       z     vdW  Elec       q    Type
REMARK                         _______ _______ _______ _____ _____    ______ ____
ROOT
ATOM      1  C   UNL     1      -2.117   1.285  -0.477  1.00  0.00    +0.000 C 
ATOM      2  C   UNL     1      -2.138   2.819  -0.401  1.00  0.00    +0.000 C 
ATOM      3  C   UNL     1      -2.111   0.871  -1.934  1.00  0.00    +0.000 C 
ATOM      4  C   UNL     1      -2.955  -0.033  -2.442  1.00  0.00    +0.000 C 
ATOM      5  C   UNL     1      -3.921  -0.639  -1.541  1.00  0.00    +0.000 A 
ATOM      6  C   UNL     1      -4.750  -1.678  -1.968  1.00  0.00    +0.000 A 
ATOM      7  C   UNL     1      -5.688  -2.232  -1.095  1.00  0.00    +0.000 A 
ATOM      8  C   UNL     1      -5.825  -1.760   0.215  1.00  0.00    +0.000 A 
ATOM      9  C   UNL     1      -6.826  -2.329   1.177  1.00  0.00    +0.000 C 
ATOM     10  C   UNL     1      -4.989  -0.712   0.632  1.00  0.00    +0.000 A 
ATOM     11  C   UNL     1      -4.041  -0.163  -0.236  1.00  0.00    +0.000 A 
ATOM     12  O   UNL     1      -3.292   0.865   0.264  1.00  0.00    +0.000 OA
ENDROOT
BRANCH   7  13
ATOM     13  O   UNL     1      -6.451  -3.246  -1.601  1.00  0.00    +0.000 OA
ATOM     14  H   UNL     1      -7.051  -3.571  -0.912  1.00  0.00    +0.000 HD
ENDBRANCH   7  13
BRANCH   1  15
ATOM     15  C   UNL     1      -0.902   0.701   0.287  1.00  0.00    +0.000 C 
BRANCH  15  16
ATOM     16  C   UNL     1       0.474   1.102  -0.249  1.00  0.00    +0.000 C 
BRANCH  16  19
ATOM     17  C   UNL     1       2.092   2.517   1.986  1.00  0.00    +0.000 C 
ATOM     18  C   UNL     1       2.316   1.095   1.534  1.00  0.00    +0.000 C 
ATOM     19  C   UNL     1       1.577   0.495   0.578  1.00  0.00    +0.000 C 
BRANCH  18  20
ATOM     20  C   UNL     1       3.441   0.409   2.289  1.00  0.00    +0.000 C 
BRANCH  20  21
ATOM     21  C   UNL     1       3.937  -0.930   1.745  1.00  0.00    +0.000 C 
ATOM     22  O   UNL     1       3.272  -1.962   1.860  1.00  0.00    +0.000 OA
BRANCH  21  23
ATOM     23  C   UNL     1       5.277  -0.954   1.031  1.00  0.00    +0.000 C 
BRANCH  23  24
ATOM     24  C   UNL     1       5.149  -0.659  -0.470  1.00  0.00    +0.000 C 
ATOM     25  C   UNL     1       5.305   0.834  -0.765  1.00  0.00    +0.000 C 
ATOM     26  C   UNL     1       6.202  -1.444  -1.257  1.00  0.00    +0.000 C 
ENDBRANCH  23  24
ENDBRANCH  21  23
ENDBRANCH  20  21
ENDBRANCH  18  20
ENDBRANCH  16  19
ENDBRANCH  15  16
ENDBRANCH   1  15
TORSDOF 8
