REMARK  Name = /srv/my_project/app/compsite/backup/Dave/CORINA_stuff/newPDBs/SANC00343.pdb
AUTHORGENERATED BY OPEN BABEL 2.3.2
REMARK  7 active torsions:
REMARK  status: ('A' for Active; 'I' for Inactive)
REMARK    1  A    between atoms: C_7  and  C_8
REMARK    2  A    between atoms: C_7  and  C_9
REMARK    3  A    between atoms: C_10  and  O_12
REMARK    4  A    between atoms: C_15  and  C_16
REMARK    5  A    between atoms: C_21  and  O_23
REMARK    6  A    between atoms: C_24  and  C_25
REMARK    7  A    between atoms: C_27  and  C_28
REMARK                            x       y       z     vdW  Elec       q    Type
REMARK                         _______ _______ _______ _____ _____    ______ ____
ROOT
ATOM      1  C   UNL     1       1.463  -0.196   0.866  1.00  0.00    +0.000 C 
ATOM      2  C   UNL     1       0.684  -1.451   1.333  1.00  0.00    +0.000 C 
ATOM      3  C   UNL     1      -0.812  -1.216   1.597  1.00  0.00    +0.000 C 
ATOM      4  C   UNL     1      -1.471  -0.526   0.393  1.00  0.00    +0.000 C 
ATOM      5  C   UNL     1      -3.035  -0.523   0.327  1.00  0.00    +0.000 C 
ATOM      6  C   UNL     1      -3.583  -1.958   0.546  1.00  0.00    +0.000 C 
ATOM      7  C   UNL     1      -3.692   0.347   1.414  1.00  0.00    +0.000 C 
ATOM      8  C   UNL     1      -3.463  -0.088  -1.122  1.00  0.00    +0.000 C 
ATOM      9  C   UNL     1      -2.376   0.655  -1.917  1.00  0.00    +0.000 C 
ATOM     10  C   UNL     1      -1.546   1.591  -1.046  1.00  0.00    +0.000 C 
ATOM     11  C   UNL     1      -0.786   0.868   0.106  1.00  0.00    +0.000 C 
ATOM     12  C   UNL     1      -0.782   1.828   1.329  1.00  0.00    +0.000 C 
ATOM     13  C   UNL     1       0.690   0.500  -0.285  1.00  0.00    +0.000 C 
ATOM     14  C   UNL     1       1.596   1.615  -0.778  1.00  0.00    +0.000 C 
ATOM     15  O   UNL     1       1.328   2.811  -0.685  1.00  0.00    +0.000 OA
ATOM     16  C   UNL     1       2.892   1.121  -1.427  1.00  0.00    +0.000 C 
ATOM     17  C   UNL     1       3.567   0.061  -0.557  1.00  0.00    +0.000 C 
ATOM     18  C   UNL     1       2.936  -0.503   0.511  1.00  0.00    +0.000 C 
ATOM     19  C   UNL     1       3.627  -1.409   1.513  1.00  0.00    +0.000 C 
ENDROOT
BRANCH   8  20
ATOM     20  O   UNL     1      -4.652   0.699  -1.079  1.00  0.00    +0.000 OA
ATOM     21  H   UNL     1      -4.902   0.914  -1.994  1.00  0.00    +0.000 HD
ENDBRANCH   8  20
BRANCH  16  22
ATOM     22  O   UNL     1       2.610   0.589  -2.720  1.00  0.00    +0.000 OA
ATOM     23  H   UNL     1       2.587  -0.380  -2.640  1.00  0.00    +0.000 HD
ENDBRANCH  16  22
BRANCH  17  24
ATOM     24  C   UNL     1       4.938  -0.308  -0.933  1.00  0.00    +0.000 C 
ATOM     25  C   UNL     1       5.679   0.227  -1.913  1.00  0.00    +0.000 C 
ENDBRANCH  17  24
TORSDOF 3
