REMARK  Name = /srv/my_project/app/compsite/backup/Dave/CORINA_stuff/newPDBs/SANC00484.pdb
AUTHORGENERATED BY OPEN BABEL 2.3.2
REMARK  17 active torsions:
REMARK  status: ('A' for Active; 'I' for Inactive)
REMARK    1  A    between atoms: C_1  and  C_2
REMARK    2  A    between atoms: C_13  and  O_20
REMARK    3  A    between atoms: C_16  and  C_18
REMARK    4  A    between atoms: C_16  and  C_19
REMARK    5  A    between atoms: C_24  and  O_82
REMARK    6  A    between atoms: C_31  and  C_81
REMARK    7  A    between atoms: C_38  and  O_79
REMARK    8  A    between atoms: C_40  and  C_78
REMARK    9  A    between atoms: C_50  and  O_74
REMARK   10  A    between atoms: C_52  and  C_73
REMARK   11  A    between atoms: C_57  and  O_72
REMARK   12  A    between atoms: C_58  and  C_71
REMARK   13  A    between atoms: C_62  and  O_70
REMARK   14  A    between atoms: C_65  and  C_67
REMARK   15  A    between atoms: C_65  and  C_68
REMARK   16  A    between atoms: C_68  and  O_69
REMARK   17  A    between atoms: O_79  and  C_80
REMARK                            x       y       z     vdW  Elec       q    Type
REMARK                         _______ _______ _______ _____ _____    ______ ____
ROOT
ATOM      1  C   UNL     1      12.168   1.840   0.219  1.00  0.00    +0.000 C 
ATOM      2  C   UNL     1      10.925   1.121   0.750  1.00  0.00    +0.000 C 
ATOM      3  C   UNL     1       9.813   1.061  -0.320  1.00  0.00    +0.000 C 
ATOM      4  C   UNL     1      10.153   0.254  -1.583  1.00  0.00    +0.000 C 
ATOM      5  C   UNL     1       8.849  -0.376  -1.938  1.00  0.00    +0.000 C 
ATOM      6  C   UNL     1       7.954  -0.300  -0.943  1.00  0.00    +0.000 C 
ATOM      7  C   UNL     1       8.519   0.430   0.258  1.00  0.00    +0.000 C 
ATOM      8  C   UNL     1       8.823  -0.454   1.477  1.00  0.00    +0.000 C 
ATOM      9  O   UNL     1      10.062  -1.139   1.332  1.00  0.00    +0.000 OA
ATOM     10  C   UNL     1      11.217  -0.281   1.367  1.00  0.00    +0.000 C 
ATOM     11  C   UNL     1      11.752  -0.268   2.829  1.00  0.00    +0.000 C 
ATOM     12  C   UNL     1      13.232  -0.530   2.671  1.00  0.00    +0.000 C 
ATOM     13  C   UNL     1      13.282  -1.419   1.439  1.00  0.00    +0.000 C 
ATOM     14  O   UNL     1      12.239  -0.936   0.580  1.00  0.00    +0.000 OA
ATOM     15  C   UNL     1      13.009  -2.891   1.763  1.00  0.00    +0.000 C 
ATOM     16  C   UNL     1      14.612  -1.287   0.702  1.00  0.00    +0.000 C 
ATOM     17  C   UNL     1       7.493   1.486   0.675  1.00  0.00    +0.000 C 
ATOM     18  O   UNL     1       7.812   2.624   1.024  1.00  0.00    +0.000 OA
ATOM     19  C   UNL     1       6.046   1.038   0.787  1.00  0.00    +0.000 C 
ATOM     20  C   UNL     1       5.554   0.361  -0.508  1.00  0.00    +0.000 C 
ATOM     21  C   UNL     1       6.525  -0.800  -0.908  1.00  0.00    +0.000 C 
ATOM     22  C   UNL     1       6.079  -1.474  -2.219  1.00  0.00    +0.000 C 
ATOM     23  C   UNL     1       4.634  -1.960  -2.158  1.00  0.00    +0.000 C 
ATOM     24  C   UNL     1       3.667  -0.836  -1.765  1.00  0.00    +0.000 C 
ATOM     25  C   UNL     1       4.056  -0.160  -0.408  1.00  0.00    +0.000 C 
ATOM     26  C   UNL     1       3.071   1.030  -0.199  1.00  0.00    +0.000 C 
ATOM     27  C   UNL     1       1.620   0.697  -0.426  1.00  0.00    +0.000 A 
ATOM     28  C   UNL     1       1.225  -0.383  -1.208  1.00  0.00    +0.000 A 
ATOM     29  C   UNL     1       2.219  -1.355  -1.778  1.00  0.00    +0.000 C 
ATOM     30  N   UNL     1      -0.084  -0.653  -1.438  1.00  0.00    +0.000 NA
ATOM     31  C   UNL     1      -0.995   0.202  -0.894  1.00  0.00    +0.000 A 
ATOM     32  C   UNL     1      -2.459  -0.069  -1.190  1.00  0.00    +0.000 C 
ATOM     33  C   UNL     1      -3.422   0.488  -0.079  1.00  0.00    +0.000 C 
ATOM     34  C   UNL     1      -3.040   1.985   0.151  1.00  0.00    +0.000 C 
ATOM     35  C   UNL     1      -3.981   2.690   1.135  1.00  0.00    +0.000 C 
ATOM     36  C   UNL     1      -5.431   2.613   0.676  1.00  0.00    +0.000 C 
ATOM     37  C   UNL     1      -5.896   1.170   0.424  1.00  0.00    +0.000 C 
ATOM     38  C   UNL     1      -4.931   0.440  -0.555  1.00  0.00    +0.000 C 
ATOM     39  C   UNL     1      -5.435  -0.993  -0.846  1.00  0.00    +0.000 C 
ATOM     40  C   UNL     1      -6.851  -0.992  -1.443  1.00  0.00    +0.000 C 
ATOM     41  C   UNL     1      -7.879  -0.253  -0.547  1.00  0.00    +0.000 C 
ATOM     42  C   UNL     1      -7.320   1.091  -0.079  1.00  0.00    +0.000 C 
ATOM     43  C   UNL     1      -8.268   2.042  -0.118  1.00  0.00    +0.000 C 
ATOM     44  C   UNL     1      -9.556   1.541  -0.685  1.00  0.00    +0.000 C 
ATOM     45  C   UNL     1      -9.154   0.226  -1.362  1.00  0.00    +0.000 C 
ATOM     46  C   UNL     1     -10.439  -0.607  -1.255  1.00  0.00    +0.000 C 
ATOM     47  C   UNL     1     -11.230   0.075  -0.110  1.00  0.00    +0.000 C 
ATOM     48  O   UNL     1     -10.474   1.219   0.344  1.00  0.00    +0.000 OA
ATOM     49  C   UNL     1     -12.683   0.505  -0.384  1.00  0.00    +0.000 C 
ATOM     50  C   UNL     1     -13.200   0.699   1.026  1.00  0.00    +0.000 C 
ATOM     51  C   UNL     1     -12.481  -0.408   1.810  1.00  0.00    +0.000 C 
ATOM     52  O   UNL     1     -11.360  -0.842   0.997  1.00  0.00    +0.000 OA
ATOM     53  C   UNL     1     -11.946   0.106   3.146  1.00  0.00    +0.000 C 
ATOM     54  C   UNL     1     -11.203  -0.722  -2.579  1.00  0.00    +0.000 C 
ATOM     55  C   UNL     1      -8.194  -1.083   0.722  1.00  0.00    +0.000 C 
ATOM     56  C   UNL     1      -1.581   2.166   0.598  1.00  0.00    +0.000 C 
ATOM     57  C   UNL     1      -0.596   1.283  -0.112  1.00  0.00    +0.000 A 
ATOM     58  N   UNL     1       0.715   1.538   0.134  1.00  0.00    +0.000 NA
ATOM     59  C   UNL     1      -3.230  -0.359   1.209  1.00  0.00    +0.000 C 
ATOM     60  C   UNL     1       3.885  -1.141   0.785  1.00  0.00    +0.000 C 
ENDROOT
BRANCH  11  61
ATOM     61  O   UNL     1      11.515   0.931   3.556  1.00  0.00    +0.000 OA
ATOM     62  H   UNL     1      11.943   0.838   4.424  1.00  0.00    +0.000 HD
ENDBRANCH  11  61
BRANCH  49  63
ATOM     63  O   UNL     1     -12.814   1.683  -1.167  1.00  0.00    +0.000 OA
ATOM     64  H   UNL     1     -13.753   1.938  -1.151  1.00  0.00    +0.000 HD
ENDBRANCH  49  63
BRANCH  45  65
ATOM     65  O   UNL     1      -8.817   0.497  -2.736  1.00  0.00    +0.000 OA
ATOM     66  H   UNL     1      -8.188   1.241  -2.743  1.00  0.00    +0.000 HD
ENDBRANCH  45  65
BRANCH  40  67
ATOM     67  O   UNL     1      -7.258  -2.345  -1.650  1.00  0.00    +0.000 OA
ATOM     68  H   UNL     1      -6.713  -2.703  -2.373  1.00  0.00    +0.000 HD
ENDBRANCH  40  67
BRANCH  32  69
ATOM     69  O   UNL     1      -2.827   0.540  -2.445  1.00  0.00    +0.000 OA
ATOM     70  C   UNL     1      -2.348  -0.165  -3.584  1.00  0.00    +0.000 C 
ENDBRANCH  32  69
BRANCH  20  71
ATOM     71  O   UNL     1       5.596   1.332  -1.575  1.00  0.00    +0.000 OA
ATOM     72  H   UNL     1       5.503   2.233  -1.216  1.00  0.00    +0.000 HD
ENDBRANCH  20  71
BRANCH  51  73
ATOM     73  C   UNL     1     -13.373  -1.639   2.048  1.00  0.00    +0.000 C 
BRANCH  73  74
ATOM     74  O   UNL     1     -13.781  -2.215   0.807  1.00  0.00    +0.000 OA
ATOM     75  H   UNL     1     -12.956  -2.522   0.385  1.00  0.00    +0.000 HD
ENDBRANCH  73  74
ENDBRANCH  51  73
TORSDOF 8
