REMARK  Name = /srv/my_project/app/compsite/backup/Dave/CORINA_stuff/newPDBs/SANC00328.pdb
AUTHORGENERATED BY OPEN BABEL 2.3.2
REMARK  5 active torsions:
REMARK  status: ('A' for Active; 'I' for Inactive)
REMARK    1  A    between atoms: C_4  and  O_6
REMARK    2  A    between atoms: O_6  and  C_7
REMARK    3  A    between atoms: C_7  and  C_8
REMARK    4  A    between atoms: C_21  and  O_23
REMARK    5  A    between atoms: O_23  and  C_24
REMARK                            x       y       z     vdW  Elec       q    Type
REMARK                         _______ _______ _______ _____ _____    ______ ____
ROOT
ATOM      1  C   UNL     1       1.074   1.032   1.025  1.00  0.00    +0.000 C 
ATOM      2  C   UNL     1       2.274   0.081   0.941  1.00  0.00    +0.000 C 
ATOM      3  C   UNL     1       2.755  -0.179  -0.490  1.00  0.00    +0.000 C 
ATOM      4  C   UNL     1       1.621  -0.354  -1.453  1.00  0.00    +0.000 C 
ATOM      5  C   UNL     1       0.352   0.001  -1.196  1.00  0.00    +0.000 C 
ATOM      6  C   UNL     1      -0.126   0.627   0.117  1.00  0.00    +0.000 C 
ATOM      7  C   UNL     1      -1.239  -0.239   0.687  1.00  0.00    +0.000 A 
ATOM      8  C   UNL     1      -0.999  -1.304   1.568  1.00  0.00    +0.000 A 
ATOM      9  C   UNL     1      -2.078  -2.048   1.996  1.00  0.00    +0.000 A 
ATOM     10  O   UNL     1      -2.019  -3.106   2.850  1.00  0.00    +0.000 OA
ATOM     11  C   UNL     1      -3.410  -3.485   2.908  1.00  0.00    +0.000 C 
ATOM     12  O   UNL     1      -4.270  -2.635   2.121  1.00  0.00    +0.000 OA
ATOM     13  C   UNL     1      -3.360  -1.781   1.581  1.00  0.00    +0.000 A 
ATOM     14  C   UNL     1      -3.642  -0.753   0.710  1.00  0.00    +0.000 A 
ATOM     15  C   UNL     1      -2.574   0.037   0.245  1.00  0.00    +0.000 A 
ATOM     16  C   UNL     1      -2.872   1.204  -0.707  1.00  0.00    +0.000 C 
ATOM     17  O   UNL     1      -1.742   2.007  -1.086  1.00  0.00    +0.000 OA
ATOM     18  C   UNL     1      -0.764   2.020  -0.060  1.00  0.00    +0.000 C 
ATOM     19  C   UNL     1       0.440   2.908  -0.313  1.00  0.00    +0.000 C 
ATOM     20  N   UNL     1       1.445   2.435   0.658  1.00  0.00    +0.000 NA
ATOM     21  H   UNL     1       2.369   2.484   0.234  1.00  0.00    +0.000 HD
ENDROOT
BRANCH  16  22
ATOM     22  O   UNL     1      -3.482   0.652  -1.873  1.00  0.00    +0.000 OA
ATOM     23  C   UNL     1      -4.070   1.652  -2.691  1.00  0.00    +0.000 C 
ENDBRANCH  16  22
BRANCH   3  24
ATOM     24  O   UNL     1       3.518  -1.387  -0.524  1.00  0.00    +0.000 OA
BRANCH  24  25
ATOM     25  C   UNL     1       4.899  -1.218  -0.216  1.00  0.00    +0.000 C 
ATOM     26  C   UNL     1       5.681  -0.818  -1.454  1.00  0.00    +0.000 C 
ENDBRANCH  24  25
ENDBRANCH   3  24
TORSDOF 3
