REMARK  Name = /srv/my_project/app/compsite/backup/Dave/CORINA_stuff/newPDBs/SANC00495.pdb
AUTHORGENERATED BY OPEN BABEL 2.3.2
REMARK  24 active torsions:
REMARK  status: ('A' for Active; 'I' for Inactive)
REMARK    1  A    between atoms: C_2  and  O_3
REMARK    2  A    between atoms: O_3  and  C_4
REMARK    3  A    between atoms: C_7  and  O_9
REMARK    4  A    between atoms: C_20  and  C_21
REMARK    5  A    between atoms: C_25  and  O_27
REMARK    6  A    between atoms: O_27  and  C_28
REMARK    7  A    between atoms: C_31  and  C_33
REMARK    8  A    between atoms: C_33  and  O_34
REMARK    9  A    between atoms: C_35  and  O_37
REMARK   10  A    between atoms: C_38  and  O_40
REMARK   11  A    between atoms: C_41  and  O_43
REMARK   12  A    between atoms: C_44  and  C_46
REMARK   13  A    between atoms: C_46  and  C_48
REMARK   14  A    between atoms: C_46  and  C_49
REMARK   15  A    between atoms: C_49  and  O_51
REMARK   16  A    between atoms: C_49  and  C_52
REMARK   17  A    between atoms: C_52  and  C_53
REMARK   18  A    between atoms: C_54  and  C_55
REMARK   19  A    between atoms: C_54  and  C_56
REMARK   20  A    between atoms: C_57  and  C_58
REMARK   21  A    between atoms: C_60  and  C_62
REMARK   22  A    between atoms: C_63  and  O_65
REMARK   23  A    between atoms: C_66  and  O_68
REMARK   24  A    between atoms: C_69  and  O_71
REMARK                            x       y       z     vdW  Elec       q    Type
REMARK                         _______ _______ _______ _____ _____    ______ ____
ROOT
ATOM      1  C   UNL     1       4.676  -0.701  -0.883  1.00  0.00    +0.000 C 
ATOM      2  C   UNL     1       5.884  -1.184  -1.713  1.00  0.00    +0.000 C 
ATOM      3  C   UNL     1       5.982  -2.697  -1.892  1.00  0.00    +0.000 C 
ATOM      4  C   UNL     1       4.958  -3.497  -1.086  1.00  0.00    +0.000 C 
ATOM      5  C   UNL     1       3.559  -2.916  -0.981  1.00  0.00    +0.000 C 
ATOM      6  C   UNL     1       2.603  -3.699  -0.447  1.00  0.00    +0.000 C 
ATOM      7  C   UNL     1       1.227  -3.254  -0.090  1.00  0.00    +0.000 C 
ATOM      8  C   UNL     1       0.864  -1.860  -0.611  1.00  0.00    +0.000 C 
ATOM      9  C   UNL     1       2.074  -0.873  -0.514  1.00  0.00    +0.000 C 
ATOM     10  C   UNL     1       1.610   0.553  -0.917  1.00  0.00    +0.000 C 
ATOM     11  C   UNL     1       0.347   1.040  -0.185  1.00  0.00    +0.000 C 
ATOM     12  C   UNL     1      -0.838   0.073  -0.354  1.00  0.00    +0.000 C 
ATOM     13  C   UNL     1      -1.302   0.046  -1.831  1.00  0.00    +0.000 C 
ATOM     14  C   UNL     1      -0.335  -1.294   0.165  1.00  0.00    +0.000 C 
ATOM     15  C   UNL     1      -1.599  -2.129   0.216  1.00  0.00    +0.000 C 
ATOM     16  C   UNL     1      -2.663  -1.157   0.769  1.00  0.00    +0.000 C 
ATOM     17  C   UNL     1      -2.063   0.297   0.609  1.00  0.00    +0.000 C 
ATOM     18  C   UNL     1       3.342  -1.424  -1.311  1.00  0.00    +0.000 C 
ATOM     19  C   UNL     1       3.095  -1.263  -2.832  1.00  0.00    +0.000 C 
ENDROOT
BRANCH  17  20
ATOM     20  C   UNL     1      -3.070   1.451   0.279  1.00  0.00    +0.000 C 
ATOM     21  C   UNL     1      -2.362   2.803   0.081  1.00  0.00    +0.000 C 
BRANCH  20  22
ATOM     22  C   UNL     1      -4.230   1.656   1.308  1.00  0.00    +0.000 C 
BRANCH  22  23
ATOM     23  O   UNL     1      -5.314   0.777   0.992  1.00  0.00    +0.000 OA
ATOM     24  H   UNL     1      -4.915  -0.088   0.787  1.00  0.00    +0.000 HD
ENDBRANCH  22  23
BRANCH  22  25
ATOM     25  C   UNL     1      -3.909   1.506   2.805  1.00  0.00    +0.000 C 
BRANCH  25  26
ATOM     26  C   UNL     1      -2.925   2.505   3.347  1.00  0.00    +0.000 C 
ATOM     27  C   UNL     1      -3.203   3.709   3.885  1.00  0.00    +0.000 C 
ATOM     28  C   UNL     1      -2.101   4.591   4.411  1.00  0.00    +0.000 C 
ATOM     29  C   UNL     1      -4.582   4.298   4.005  1.00  0.00    +0.000 C 
ENDBRANCH  25  26
ENDBRANCH  22  25
ENDBRANCH  20  22
ENDBRANCH  17  20
BRANCH   3  30
ATOM     30  O   UNL     1       5.892  -3.011  -3.284  1.00  0.00    +0.000 OA
ATOM     31  H   UNL     1       5.936  -3.978  -3.379  1.00  0.00    +0.000 HD
ENDBRANCH   3  30
BRANCH  16  32
ATOM     32  O   UNL     1      -3.930  -1.319   0.128  1.00  0.00    +0.000 OA
BRANCH  32  33
ATOM     33  C   UNL     1      -4.479  -2.645   0.260  1.00  0.00    +0.000 C 
ATOM     34  O   UNL     1      -4.222  -3.407  -0.928  1.00  0.00    +0.000 OA
ATOM     35  C   UNL     1      -5.192  -3.253  -1.974  1.00  0.00    +0.000 C 
ATOM     36  C   UNL     1      -6.566  -3.785  -1.506  1.00  0.00    +0.000 C 
ATOM     37  C   UNL     1      -6.703  -3.763   0.024  1.00  0.00    +0.000 C 
ATOM     38  C   UNL     1      -5.982  -2.562   0.616  1.00  0.00    +0.000 C 
BRANCH  37  39
ATOM     39  O   UNL     1      -8.089  -3.722   0.399  1.00  0.00    +0.000 OA
ATOM     40  H   UNL     1      -8.523  -4.434  -0.113  1.00  0.00    +0.000 HD
ENDBRANCH  37  39
BRANCH  38  41
ATOM     41  O   UNL     1      -6.156  -2.546   2.041  1.00  0.00    +0.000 OA
ATOM     42  H   UNL     1      -7.119  -2.663   2.175  1.00  0.00    +0.000 HD
ENDBRANCH  38  41
BRANCH  36  43
ATOM     43  O   UNL     1      -6.751  -5.160  -1.903  1.00  0.00    +0.000 OA
ATOM     44  H   UNL     1      -5.910  -5.627  -1.749  1.00  0.00    +0.000 HD
ENDBRANCH  36  43
BRANCH  35  45
ATOM     45  C   UNL     1      -5.245  -1.818  -2.528  1.00  0.00    +0.000 C 
BRANCH  45  46
ATOM     46  O   UNL     1      -6.057  -1.764  -3.694  1.00  0.00    +0.000 OA
ATOM     47  H   UNL     1      -6.018  -0.848  -4.025  1.00  0.00    +0.000 HD
ENDBRANCH  45  46
ENDBRANCH  35  45
ENDBRANCH  32  33
ENDBRANCH  16  32
BRANCH   1  48
ATOM     48  O   UNL     1       4.605   0.720  -1.050  1.00  0.00    +0.000 OA
BRANCH  48  49
ATOM     49  C   UNL     1       4.969   1.486   0.110  1.00  0.00    +0.000 C 
ATOM     50  O   UNL     1       4.399   2.791  -0.032  1.00  0.00    +0.000 OA
ATOM     51  C   UNL     1       5.284   3.715  -0.656  1.00  0.00    +0.000 C 
ATOM     52  C   UNL     1       4.479   4.952  -1.039  1.00  0.00    +0.000 C 
ATOM     53  C   UNL     1       6.408   4.062   0.333  1.00  0.00    +0.000 C 
ATOM     54  C   UNL     1       7.002   2.796   0.982  1.00  0.00    +0.000 C 
ATOM     55  C   UNL     1       6.508   1.504   0.323  1.00  0.00    +0.000 C 
BRANCH  55  56
ATOM     56  O   UNL     1       6.937   0.384   1.123  1.00  0.00    +0.000 OA
ATOM     57  H   UNL     1       6.496   0.492   1.988  1.00  0.00    +0.000 HD
ENDBRANCH  55  56
BRANCH  54  58
ATOM     58  O   UNL     1       6.678   2.764   2.385  1.00  0.00    +0.000 OA
ATOM     59  H   UNL     1       7.437   2.347   2.834  1.00  0.00    +0.000 HD
ENDBRANCH  54  58
BRANCH  53  60
ATOM     60  O   UNL     1       7.436   4.790  -0.348  1.00  0.00    +0.000 OA
ATOM     61  H   UNL     1       7.993   5.203   0.336  1.00  0.00    +0.000 HD
ENDBRANCH  53  60
ENDBRANCH  48  49
ENDBRANCH   1  48
TORSDOF 18
