REMARK  Name = /srv/my_project/app/compsite/backup/Dave/CORINA_stuff/newPDBs/SANC00519.pdb
AUTHORGENERATED BY OPEN BABEL 2.3.2
REMARK  8 active torsions:
REMARK  status: ('A' for Active; 'I' for Inactive)
REMARK    1  A    between atoms: C_1  and  O_2
REMARK    2  A    between atoms: O_2  and  C_3
REMARK    3  A    between atoms: C_4  and  O_5
REMARK    4  A    between atoms: C_8  and  C_9
REMARK    5  A    between atoms: C_9  and  C_11
REMARK    6  A    between atoms: C_12  and  C_13
REMARK    7  A    between atoms: C_17  and  O_18
REMARK    8  A    between atoms: C_20  and  O_21
REMARK                            x       y       z     vdW  Elec       q    Type
REMARK                         _______ _______ _______ _____ _____    ______ ____
ROOT
ATOM      1  C   UNL     1       3.678   0.236   0.356  1.00  0.00    +0.000 A 
ATOM      2  C   UNL     1       3.318   1.550   0.696  1.00  0.00    +0.000 A 
ATOM      3  C   UNL     1       2.045   1.880   1.143  1.00  0.00    +0.000 A 
ATOM      4  C   UNL     1       1.081   0.882   1.246  1.00  0.00    +0.000 A 
ATOM      5  C   UNL     1       1.398  -0.438   0.889  1.00  0.00    +0.000 A 
ATOM      6  C   UNL     1       2.709  -0.768   0.475  1.00  0.00    +0.000 A 
ENDROOT
BRANCH   1   8
ATOM      7  C   UNL     1       5.445  -1.133  -0.513  1.00  0.00    +0.000 C 
ATOM      8  O   UNL     1       4.986   0.129  -0.047  1.00  0.00    +0.000 OA
ENDBRANCH   1   8
BRANCH   2   9
ATOM      9  O   UNL     1       4.239   2.561   0.602  1.00  0.00    +0.000 OA
ATOM     10  H   UNL     1       5.059   2.124   0.295  1.00  0.00    +0.000 HD
ENDBRANCH   2   9
BRANCH   5  11
ATOM     11  C   UNL     1       0.374  -1.509   0.988  1.00  0.00    +0.000 C 
ATOM     12  O   UNL     1       0.733  -2.654   1.259  1.00  0.00    +0.000 OA
BRANCH  11  13
ATOM     13  C   UNL     1      -1.065  -1.234   0.747  1.00  0.00    +0.000 C 
ATOM     14  C   UNL     1      -1.509  -0.379  -0.187  1.00  0.00    +0.000 C 
BRANCH  14  15
ATOM     15  C   UNL     1      -2.934  -0.134  -0.455  1.00  0.00    +0.000 A 
ATOM     16  C   UNL     1      -3.889  -1.160  -0.424  1.00  0.00    +0.000 A 
ATOM     17  C   UNL     1      -5.231  -0.892  -0.709  1.00  0.00    +0.000 A 
ATOM     18  C   UNL     1      -5.628   0.402  -1.037  1.00  0.00    +0.000 A 
ATOM     19  C   UNL     1      -4.682   1.418  -1.086  1.00  0.00    +0.000 A 
ATOM     20  C   UNL     1      -3.341   1.162  -0.804  1.00  0.00    +0.000 A 
BRANCH  19  21
ATOM     21  O   UNL     1      -5.113   2.668  -1.420  1.00  0.00    +0.000 OA
ATOM     22  H   UNL     1      -4.353   3.272  -1.428  1.00  0.00    +0.000 HD
ENDBRANCH  19  21
ENDBRANCH  14  15
ENDBRANCH  11  13
ENDBRANCH   5  11
BRANCH   6  23
ATOM     23  O   UNL     1       3.035  -2.073   0.197  1.00  0.00    +0.000 OA
ATOM     24  H   UNL     1       2.335  -2.658   0.567  1.00  0.00    +0.000 HD
ENDBRANCH   6  23
TORSDOF 7
