REMARK  Name = SANCDB_00908_minRM1.pdb
AUTHORGENERATED BY OPEN BABEL 2.3.2
REMARK  12 active torsions:
REMARK  status: ('A' for Active; 'I' for Inactive)
REMARK    1  A    between atoms: C_1  and  O_2
REMARK    2  A    between atoms: O_2  and  C_3
REMARK    3  A    between atoms: C_5  and  C_12
REMARK    4  A    between atoms: C_7  and  O_10
REMARK    5  A    between atoms: C_8  and  O_9
REMARK    6  A    between atoms: O_10  and  C_11
REMARK    7  A    between atoms: C_12  and  O_14
REMARK    8  A    between atoms: O_14  and  C_15
REMARK    9  A    between atoms: C_15  and  C_16
REMARK   10  A    between atoms: C_16  and  C_17
REMARK   11  A    between atoms: C_17  and  C_18
REMARK   12  A    between atoms: C_18  and  N_19
REMARK                            x       y       z     vdW  Elec       q    Type
REMARK                         _______ _______ _______ _____ _____    ______ ____
ROOT
ATOM      1  C   UNL     1      -0.859   0.362  -0.372  1.00  0.00    +0.000 C 
ATOM      2  O   UNL     1      -0.471   1.274  -1.086  1.00  0.00    +0.000 OA
ENDROOT
BRANCH   1   5
ATOM      3  C   UNL     1      -4.585   0.893  -0.273  1.00  0.00    +0.000 A 
ATOM      4  C   UNL     1      -3.231   1.046  -0.562  1.00  0.00    +0.000 A 
ATOM      5  C   UNL     1      -2.292   0.149  -0.027  1.00  0.00    +0.000 A 
ATOM      6  C   UNL     1      -2.713  -0.905   0.802  1.00  0.00    +0.000 A 
ATOM      7  C   UNL     1      -4.067  -1.069   1.101  1.00  0.00    +0.000 A 
ATOM      8  C   UNL     1      -4.987  -0.165   0.555  1.00  0.00    +0.000 A 
BRANCH   3  10
ATOM      9  C   UNL     1      -5.234   2.785  -1.565  1.00  0.00    +0.000 C 
ATOM     10  O   UNL     1      -5.602   1.693  -0.728  1.00  0.00    +0.000 OA
ENDBRANCH   3  10
BRANCH   8  11
ATOM     11  O   UNL     1      -6.326  -0.309   0.835  1.00  0.00    +0.000 OA
ATOM     12  H   UNL     1      -6.769   0.419   0.360  1.00  0.00    +0.000 HD
ENDBRANCH   8  11
BRANCH   7  13
ATOM     13  O   UNL     1      -4.585  -2.058   1.894  1.00  0.00    +0.000 OA
ATOM     14  C   UNL     1      -3.676  -2.980   2.478  1.00  0.00    +0.000 C 
ENDBRANCH   7  13
ENDBRANCH   1   5
BRANCH   1  15
ATOM     15  O   UNL     1      -0.078  -0.579   0.213  1.00  0.00    +0.000 OA
BRANCH  15  16
ATOM     16  C   UNL     1       1.332  -0.469  -0.045  1.00  0.00    +0.000 C 
BRANCH  16  17
ATOM     17  C   UNL     1       1.979   0.429   1.004  1.00  0.00    +0.000 C 
BRANCH  17  18
ATOM     18  C   UNL     1       3.463   0.696   0.751  1.00  0.00    +0.000 C 
BRANCH  18  19
ATOM     19  C   UNL     1       4.323  -0.566   0.782  1.00  0.00    +0.000 C 
BRANCH  19  20
ATOM     20  N   UNL     1       5.734  -0.199   0.734  1.00  0.00    +0.000 NA
ATOM     21  C   UNL     1       6.334  -0.104  -0.390  1.00  0.00    +0.000 C 
ATOM     22  N   UNL     1       5.868  -0.262  -1.648  1.00  0.00    +0.000 N 
ATOM     23  N   UNL     1       7.649   0.199  -0.423  1.00  0.00    +0.000 N 
ATOM     24  H   UNL     1       4.861  -0.207  -1.725  1.00  0.00    +0.000 HD
ATOM     25  H   UNL     1       6.308   0.383  -2.295  1.00  0.00    +0.000 HD
ATOM     26  H   UNL     1       8.026   0.170   0.520  1.00  0.00    +0.000 HD
ATOM     27  H   UNL     1       8.169  -0.427  -1.026  1.00  0.00    +0.000 HD
ENDBRANCH  19  20
ENDBRANCH  18  19
ENDBRANCH  17  18
ENDBRANCH  16  17
ENDBRANCH  15  16
ENDBRANCH   1  15
TORSDOF 10
