REMARK  Name = /srv/my_project/app/compsite/backup/Dave/CORINA_stuff/newPDBs/SANC00457.pdb
AUTHORGENERATED BY OPEN BABEL 2.3.2
REMARK  7 active torsions:
REMARK  status: ('A' for Active; 'I' for Inactive)
REMARK    1  A    between atoms: C_4  and  O_6
REMARK    2  A    between atoms: C_7  and  C_8
REMARK    3  A    between atoms: C_9  and  C_11
REMARK    4  A    between atoms: C_11  and  C_12
REMARK    5  A    between atoms: C_16  and  O_17
REMARK    6  A    between atoms: C_18  and  C_19
REMARK    7  A    between atoms: C_24  and  O_26
REMARK                            x       y       z     vdW  Elec       q    Type
REMARK                         _______ _______ _______ _____ _____    ______ ____
ROOT
ATOM      1  C   UNL     1       0.798   0.538  -0.638  1.00  0.00    +0.000 C 
ATOM      2  C   UNL     1       0.124  -0.076  -1.870  1.00  0.00    +0.000 C 
ATOM      3  C   UNL     1      -1.366   0.263  -1.926  1.00  0.00    +0.000 C 
ATOM      4  C   UNL     1      -2.161  -0.190  -0.658  1.00  0.00    +0.000 C 
ATOM      5  C   UNL     1      -2.381  -1.717  -0.706  1.00  0.00    +0.000 C 
ATOM      6  C   UNL     1      -3.532   0.568  -0.648  1.00  0.00    +0.000 C 
ATOM      7  C   UNL     1      -3.290   1.884   0.101  1.00  0.00    +0.000 C 
ATOM      8  C   UNL     1      -1.864   1.828   0.650  1.00  0.00    +0.000 C 
ATOM      9  C   UNL     1      -1.447   0.339   0.632  1.00  0.00    +0.000 C 
ATOM     10  C   UNL     1       0.118   0.097   0.699  1.00  0.00    +0.000 C 
ATOM     11  C   UNL     1       0.413  -1.395   1.027  1.00  0.00    +0.000 C 
ATOM     12  C   UNL     1       0.763   0.939   1.848  1.00  0.00    +0.000 C 
ATOM     13  C   UNL     1       2.263   1.014   1.790  1.00  0.00    +0.000 C 
ATOM     14  C   UNL     1       2.983   0.763   0.683  1.00  0.00    +0.000 C 
ATOM     15  C   UNL     1       4.494   0.773   0.690  1.00  0.00    +0.000 C 
ATOM     16  C   UNL     1       5.064  -0.547   0.147  1.00  0.00    +0.000 C 
ATOM     17  C   UNL     1       4.460  -0.904  -1.212  1.00  0.00    +0.000 C 
ATOM     18  C   UNL     1       2.925  -0.912  -1.187  1.00  0.00    +0.000 C 
ATOM     19  C   UNL     1       2.353   0.418  -0.656  1.00  0.00    +0.000 C 
ENDROOT
BRANCH   6  20
ATOM     20  C   UNL     1      -4.777  -0.175  -0.143  1.00  0.00    +0.000 C 
ATOM     21  C   UNL     1      -4.931  -0.536   1.312  1.00  0.00    +0.000 C 
ATOM     22  O   UNL     1      -5.663  -0.500  -0.942  1.00  0.00    +0.000 OA
ENDBRANCH   6  20
BRANCH   3  23
ATOM     23  O   UNL     1      -1.929  -0.332  -3.094  1.00  0.00    +0.000 OA
ATOM     24  H   UNL     1      -1.439  -0.006  -3.869  1.00  0.00    +0.000 HD
ENDBRANCH   3  23
BRANCH   9  25
ATOM     25  O   UNL     1      -2.072  -0.247   1.781  1.00  0.00    +0.000 OA
ATOM     26  H   UNL     1      -1.665   0.120   2.584  1.00  0.00    +0.000 HD
ENDBRANCH   9  25
BRANCH  16  27
ATOM     27  O   UNL     1       4.813  -1.624   1.052  1.00  0.00    +0.000 OA
ATOM     28  H   UNL     1       5.022  -1.315   1.950  1.00  0.00    +0.000 HD
ENDBRANCH  16  27
TORSDOF 4
