REMARK  Name = /srv/my_project/app/compsite/backup/Dave/CORINA_stuff/newPDBs/SANC00586.pdb
AUTHORGENERATED BY OPEN BABEL 2.3.2
REMARK  12 active torsions:
REMARK  status: ('A' for Active; 'I' for Inactive)
REMARK    1  A    between atoms: C_7  and  C_9
REMARK    2  A    between atoms: C_9  and  C_10
REMARK    3  A    between atoms: C_10  and  C_11
REMARK    4  A    between atoms: C_11  and  O_12
REMARK    5  A    between atoms: C_13  and  C_15
REMARK    6  A    between atoms: C_21  and  C_22
REMARK    7  A    between atoms: C_21  and  C_23
REMARK    8  A    between atoms: C_28  and  C_29
REMARK    9  A    between atoms: C_30  and  C_31
REMARK   10  A    between atoms: C_34  and  O_36
REMARK   11  A    between atoms: C_37  and  C_38
REMARK   12  A    between atoms: C_37  and  C_39
REMARK                            x       y       z     vdW  Elec       q    Type
REMARK                         _______ _______ _______ _____ _____    ______ ____
ROOT
ATOM      1  C   UNL     1       0.756   0.018   0.554  1.00  0.00    +0.000 C 
ENDROOT
BRANCH   1   2
ATOM      2  C   UNL     1       2.073  -0.508  -0.104  1.00  0.00    +0.000 C 
ATOM      3  C   UNL     1       2.151  -2.089   0.008  1.00  0.00    +0.000 C 
ATOM      4  C   UNL     1       2.462  -2.816  -1.314  1.00  0.00    +0.000 C 
ATOM      5  C   UNL     1       3.114  -2.583   1.099  1.00  0.00    +0.000 C 
ATOM      6  C   UNL     1       4.519  -1.991   1.015  1.00  0.00    +0.000 C 
ATOM      7  C   UNL     1       4.582  -0.672   0.244  1.00  0.00    +0.000 C 
ATOM      8  O   UNL     1       5.766   0.027   0.633  1.00  0.00    +0.000 OA
ATOM      9  C   UNL     1       6.472   0.644  -0.441  1.00  0.00    +0.000 C 
ATOM     10  C   UNL     1       7.230   1.835   0.157  1.00  0.00    +0.000 C 
ATOM     11  C   UNL     1       7.499  -0.393  -0.931  1.00  0.00    +0.000 C 
ATOM     12  C   UNL     1       5.663   1.166  -1.660  1.00  0.00    +0.000 C 
ATOM     13  O   UNL     1       6.146   1.151  -2.799  1.00  0.00    +0.000 OA
ATOM     14  C   UNL     1       4.285   1.776  -1.465  1.00  0.00    +0.000 C 
ATOM     15  C   UNL     1       3.612   1.656  -0.099  1.00  0.00    +0.000 C 
ATOM     16  C   UNL     1       3.353   0.228   0.505  1.00  0.00    +0.000 C 
ATOM     17  C   UNL     1       3.205   0.495   2.038  1.00  0.00    +0.000 C 
BRANCH   2  18
ATOM     18  O   UNL     1       2.022  -0.153  -1.492  1.00  0.00    +0.000 OA
ATOM     19  H   UNL     1       1.275  -0.608  -1.914  1.00  0.00    +0.000 HD
ENDBRANCH   2  18
ENDBRANCH   1   2
BRANCH   1  20
ATOM     20  C   UNL     1      -0.556  -0.340  -0.175  1.00  0.00    +0.000 C 
BRANCH  20  26
ATOM     21  C   UNL     1      -4.395  -0.126   0.554  1.00  0.00    +0.000 C 
ATOM     22  C   UNL     1      -4.277  -1.376   1.452  1.00  0.00    +0.000 C 
ATOM     23  C   UNL     1      -2.868  -1.680   1.948  1.00  0.00    +0.000 C 
ATOM     24  C   UNL     1      -2.029  -0.441   1.911  1.00  0.00    +0.000 C 
ATOM     25  C   UNL     1      -1.573   0.130   3.039  1.00  0.00    +0.000 C 
ATOM     26  C   UNL     1      -1.834   0.183   0.535  1.00  0.00    +0.000 C 
ATOM     27  C   UNL     1      -3.150   0.073  -0.368  1.00  0.00    +0.000 C 
ATOM     28  C   UNL     1      -3.083  -1.095  -1.390  1.00  0.00    +0.000 C 
ATOM     29  C   UNL     1      -3.245   1.404  -1.182  1.00  0.00    +0.000 C 
ATOM     30  C   UNL     1      -4.546   1.707  -1.929  1.00  0.00    +0.000 C 
ATOM     31  C   UNL     1      -5.709   2.019  -0.978  1.00  0.00    +0.000 C 
ATOM     32  C   UNL     1      -6.452   0.757  -0.461  1.00  0.00    +0.000 C 
ATOM     33  C   UNL     1      -7.243   1.082   0.817  1.00  0.00    +0.000 C 
ATOM     34  C   UNL     1      -7.457   0.227  -1.501  1.00  0.00    +0.000 C 
ATOM     35  O   UNL     1      -5.577  -0.348  -0.218  1.00  0.00    +0.000 OA
BRANCH  31  36
ATOM     36  O   UNL     1      -6.612   2.930  -1.616  1.00  0.00    +0.000 OA
ATOM     37  H   UNL     1      -6.797   2.591  -2.510  1.00  0.00    +0.000 HD
ENDBRANCH  31  36
ENDBRANCH  20  26
ENDBRANCH   1  20
TORSDOF 5
