REMARK  Name = [H][C@]4([C@H](C)CC[C@H](O)C(C)(C)O[C@@H]1O[C@H](CO)[C@@H](O)[C@H](O)[C@H]1O...
REMARK  22 active torsions:
REMARK  status: ('A' for Active; 'I' for Inactive)
REMARK    1  A    between atoms: C_4  and  C_33
REMARK    2  A    between atoms: C_5  and  C_42
REMARK    3  A    between atoms: C_6  and  C_42
REMARK    4  A    between atoms: C_7  and  C_43
REMARK    5  A    between atoms: C_8  and  C_43
REMARK    6  A    between atoms: C_9  and  C_47
REMARK    7  A    between atoms: C_10  and  C_48
REMARK    8  A    between atoms: O_11  and  C_19
REMARK    9  A    between atoms: O_12  and  C_34
REMARK   10  A    between atoms: O_13  and  C_35
REMARK   11  A    between atoms: O_14  and  C_36
REMARK   12  A    between atoms: O_15  and  C_37
REMARK   13  A    between atoms: O_16  and  C_38
REMARK   14  A    between atoms: O_17  and  C_39
REMARK   15  A    between atoms: C_19  and  C_40
REMARK   16  A    between atoms: C_21  and  C_22
REMARK   17  A    between atoms: C_21  and  C_33
REMARK   18  A    between atoms: C_22  and  C_34
REMARK   19  A    between atoms: O_30  and  C_41
REMARK   20  A    between atoms: O_30  and  C_42
REMARK   21  A    between atoms: C_33  and  C_44
REMARK   22  A    between atoms: C_34  and  C_42
REMARK                            x       y       z     vdW  Elec       q    Type
REMARK                         _______ _______ _______ _____ _____    ______ ____
ROOT
ATOM      1  C   UNL     1      -6.822   3.000   1.315  1.00  0.00    +0.000 C 
ATOM      2  C   UNL     1      -6.488   2.329   3.650  1.00  0.00    +0.000 C 
ATOM      3  C   UNL     1      -1.114  -3.080   0.041  1.00  0.00    +0.000 C 
ATOM      4  C   UNL     1      -2.394   0.527  -1.194  1.00  0.00    +0.000 C 
ATOM      5  C   UNL     1      -1.723  -0.674   1.879  1.00  0.00    +0.000 C 
ATOM      6  C   UNL     1      -0.611  -0.759   0.849  1.00  0.00    +0.000 C 
ATOM      7  C   UNL     1      -1.211  -1.760  -2.823  1.00  0.00    +0.000 C 
ATOM      8  C   UNL     1      -2.625  -1.727  -2.205  1.00  0.00    +0.000 C 
ATOM      9  C   UNL     1      -5.202   0.783   0.305  1.00  0.00    +0.000 C 
ATOM     10  C   UNL     1      -7.917  -0.334   3.088  1.00  0.00    +0.000 C 
ATOM     11  C   UNL     1      -4.071  -1.091   2.700  1.00  0.00    +0.000 C 
ATOM     12  O   UNL     1      -5.808  -1.299   1.002  1.00  0.00    +0.000 OA
ATOM     13  C   UNL     1      -4.945  -0.690   0.008  1.00  0.00    +0.000 C 
ATOM     14  C   UNL     1      -3.015  -0.967   1.617  1.00  0.00    +0.000 C 
ATOM     15  C   UNL     1      -7.937   0.862   2.134  1.00  0.00    +0.000 C 
ATOM     16  C   UNL     1      -6.550  -0.998   3.284  1.00  0.00    +0.000 C 
ATOM     17  C   UNL     1      -6.674   1.752   2.224  1.00  0.00    +0.000 C 
ATOM     18  C   UNL     1      -0.194  -1.446  -1.682  1.00  0.00    +0.000 C 
ATOM     19  C   UNL     1      -5.428   0.891   1.827  1.00  0.00    +0.000 C 
ATOM     20  C   UNL     1      -3.529  -1.293   0.214  1.00  0.00    +0.000 C 
ATOM     21  C   UNL     1      -1.050  -1.583  -0.385  1.00  0.00    +0.000 C 
ATOM     22  C   UNL     1      -2.445  -0.996  -0.867  1.00  0.00    +0.000 C 
ATOM     23  C   UNL     1      -5.481  -0.603   2.245  1.00  0.00    +0.000 C 
ENDROOT
BRANCH  18  25
ATOM     24  C   UNL     1       1.211  -3.657  -2.005  1.00  0.00    +0.000 C 
ATOM     25  C   UNL     1       1.196  -2.129  -1.873  1.00  0.00    +0.000 C 
BRANCH  25  26
ATOM     26  C   UNL     1       2.200  -1.660  -0.798  1.00  0.00    +0.000 C 
BRANCH  26  27
ATOM     27  C   UNL     1       3.683  -1.996  -1.039  1.00  0.00    +0.000 C 
BRANCH  27  28
ATOM     28  C   UNL     1       4.302  -1.274  -2.253  1.00  0.00    +0.000 C 
BRANCH  28  31
ATOM     29  C   UNL     1       6.542  -2.504  -2.124  1.00  0.00    +0.000 C 
ATOM     30  C   UNL     1       6.404  -0.381  -3.401  1.00  0.00    +0.000 C 
ATOM     31  C   UNL     1       5.860  -1.123  -2.167  1.00  0.00    +0.000 C 
BRANCH  31  32
ATOM     32  O   UNL     1       6.255  -0.487  -0.939  1.00  0.00    +0.000 OA
BRANCH  32  38
ATOM     33  O   UNL     1       7.072   1.666  -1.292  1.00  0.00    +0.000 OA
ATOM     34  C   UNL     1       6.166   2.634   1.093  1.00  0.00    +0.000 C 
ATOM     35  C   UNL     1       5.976   3.567  -0.108  1.00  0.00    +0.000 C 
ATOM     36  C   UNL     1       5.753   1.197   0.712  1.00  0.00    +0.000 C 
ATOM     37  C   UNL     1       6.799   3.076  -1.327  1.00  0.00    +0.000 C 
ATOM     38  C   UNL     1       5.973   0.909  -0.798  1.00  0.00    +0.000 C 
BRANCH  34  39
ATOM     39  O   UNL     1       7.516   2.700   1.559  1.00  0.00    +0.000 OA
ATOM     40  H   UNL     1       7.590   2.087   2.314  1.00  0.00    +0.000 HD
ENDBRANCH  34  39
BRANCH  35  41
ATOM     41  O   UNL     1       4.571   3.554  -0.443  1.00  0.00    +0.000 OA
ATOM     42  H   UNL     1       4.434   4.299  -1.061  1.00  0.00    +0.000 HD
ENDBRANCH  35  41
BRANCH  36  43
ATOM     43  O   UNL     1       4.360   1.001   1.037  1.00  0.00    +0.000 OA
ATOM     44  H   UNL     1       3.875   1.735   0.607  1.00  0.00    +0.000 HD
ENDBRANCH  36  43
BRANCH  37  45
ATOM     45  C   UNL     1       8.143   3.803  -1.438  1.00  0.00    +0.000 C 
BRANCH  45  46
ATOM     46  O   UNL     1       7.939   5.194  -1.669  1.00  0.00    +0.000 OA
ATOM     47  H   UNL     1       8.824   5.597  -1.719  1.00  0.00    +0.000 HD
ENDBRANCH  45  46
ENDBRANCH  37  45
ENDBRANCH  32  38
ENDBRANCH  31  32
ENDBRANCH  28  31
BRANCH  28  48
ATOM     48  O   UNL     1       3.927  -1.942  -3.462  1.00  0.00    +0.000 OA
ATOM     49  H   UNL     1       4.121  -2.889  -3.357  1.00  0.00    +0.000 HD
ENDBRANCH  28  48
ENDBRANCH  27  28
ENDBRANCH  26  27
ENDBRANCH  25  26
ENDBRANCH  18  25
BRANCH  15  50
ATOM     50  O   UNL     1      -9.126   1.604   2.413  1.00  0.00    +0.000 OA
ATOM     51  H   UNL     1      -9.274   2.217   1.673  1.00  0.00    +0.000 HD
ENDBRANCH  15  50
BRANCH  16  52
ATOM     52  O   UNL     1      -6.088  -0.751   4.617  1.00  0.00    +0.000 OA
ATOM     53  H   UNL     1      -6.766  -1.091   5.227  1.00  0.00    +0.000 HD
ENDBRANCH  16  52
TORSDOF 15
