REMARK  Name = /srv/my_project/app/compsite/backup/Dave/CORINA_stuff/newPDBs/SANC00466.pdb
AUTHORGENERATED BY OPEN BABEL 2.3.2
REMARK  9 active torsions:
REMARK  status: ('A' for Active; 'I' for Inactive)
REMARK    1  A    between atoms: C_6  and  C_7
REMARK    2  A    between atoms: C_8  and  C_10
REMARK    3  A    between atoms: C_19  and  O_20
REMARK    4  A    between atoms: C_21  and  O_22
REMARK    5  A    between atoms: C_24  and  O_26
REMARK    6  A    between atoms: O_26  and  C_27
REMARK    7  A    between atoms: C_27  and  C_28
REMARK    8  A    between atoms: C_32  and  O_34
REMARK    9  A    between atoms: C_37  and  C_38
REMARK                            x       y       z     vdW  Elec       q    Type
REMARK                         _______ _______ _______ _____ _____    ______ ____
ROOT
ATOM      1  C   UNL     1      -0.665  -0.876  -0.251  1.00  0.00    +0.000 C 
ATOM      2  C   UNL     1       0.371  -1.148  -1.346  1.00  0.00    +0.000 C 
ATOM      3  C   UNL     1       1.766  -1.053  -0.781  1.00  0.00    +0.000 C 
ATOM      4  O   UNL     1       2.570  -1.962  -1.004  1.00  0.00    +0.000 OA
ATOM      5  C   UNL     1       2.172   0.228  -0.036  1.00  0.00    +0.000 C 
ATOM      6  C   UNL     1       2.605   1.234  -1.119  1.00  0.00    +0.000 C 
ATOM      7  C   UNL     1       3.319  -0.138   0.996  1.00  0.00    +0.000 C 
ATOM      8  C   UNL     1       2.771   0.250   2.381  1.00  0.00    +0.000 C 
ATOM      9  C   UNL     1       1.267   0.091   2.226  1.00  0.00    +0.000 C 
ATOM     10  C   UNL     1       0.999   0.752   0.867  1.00  0.00    +0.000 C 
ATOM     11  C   UNL     1      -0.451   0.559   0.294  1.00  0.00    +0.000 C 
ATOM     12  C   UNL     1      -1.525   0.915   1.343  1.00  0.00    +0.000 C 
ATOM     13  C   UNL     1      -2.966   0.697   0.865  1.00  0.00    +0.000 C 
ATOM     14  C   UNL     1      -3.133  -0.720   0.354  1.00  0.00    +0.000 C 
ATOM     15  C   UNL     1      -4.120  -1.499   0.845  1.00  0.00    +0.000 C 
ATOM     16  C   UNL     1      -4.410  -2.897   0.406  1.00  0.00    +0.000 C 
ATOM     17  C   UNL     1      -3.692  -3.267  -0.886  1.00  0.00    +0.000 C 
ATOM     18  C   UNL     1      -2.249  -2.771  -0.859  1.00  0.00    +0.000 C 
ATOM     19  C   UNL     1      -2.138  -1.212  -0.708  1.00  0.00    +0.000 C 
ATOM     20  C   UNL     1      -2.500  -0.594  -2.080  1.00  0.00    +0.000 C 
ENDROOT
BRANCH   7  21
ATOM     21  C   UNL     1       4.724   0.346   0.688  1.00  0.00    +0.000 A 
ATOM     22  C   UNL     1       5.536  -0.478  -0.181  1.00  0.00    +0.000 A 
ATOM     23  C   UNL     1       6.790  -0.130  -0.489  1.00  0.00    +0.000 A 
ATOM     24  C   UNL     1       7.389   1.104   0.051  1.00  0.00    +0.000 A 
ATOM     25  O   UNL     1       8.540   1.413  -0.238  1.00  0.00    +0.000 OA
ATOM     26  O   UNL     1       6.606   1.865   0.875  1.00  0.00    +0.000 OA
ATOM     27  C   UNL     1       5.294   1.459   1.171  1.00  0.00    +0.000 A 
ENDBRANCH   7  21
BRANCH  10  28
ATOM     28  O   UNL     1       1.171   2.184   1.037  1.00  0.00    +0.000 OA
ATOM     29  H   UNL     1       0.732   2.461   1.863  1.00  0.00    +0.000 HD
ENDBRANCH  10  28
BRANCH  11  30
ATOM     30  O   UNL     1      -0.569   1.496  -0.788  1.00  0.00    +0.000 OA
ATOM     31  H   UNL     1      -0.113   2.313  -0.493  1.00  0.00    +0.000 HD
ENDBRANCH  11  30
BRANCH  16  32
ATOM     32  O   UNL     1      -5.814  -3.008   0.223  1.00  0.00    +0.000 OA
ATOM     33  H   UNL     1      -5.992  -3.900  -0.120  1.00  0.00    +0.000 HD
ENDBRANCH  16  32
BRANCH  13  34
ATOM     34  O   UNL     1      -3.345   1.591  -0.188  1.00  0.00    +0.000 OA
BRANCH  34  35
ATOM     35  C   UNL     1      -3.597   2.875   0.171  1.00  0.00    +0.000 C 
ATOM     36  C   UNL     1      -3.977   3.676  -1.036  1.00  0.00    +0.000 C 
ATOM     37  O   UNL     1      -3.519   3.327   1.305  1.00  0.00    +0.000 OA
ENDBRANCH  34  35
ENDBRANCH  13  34
TORSDOF 6
