REMARK  Name = SANC00365.pdb
AUTHORGENERATED BY OPEN BABEL 2.3.0
REMARK  10 active torsions:
REMARK  status: ('A' for Active; 'I' for Inactive)
REMARK    1  A    between atoms: C_2  and  C_23
REMARK    2  A    between atoms: C_3  and  C_23
REMARK    3  A    between atoms: C_4  and  C_26
REMARK    4  A    between atoms: C_5  and  C_26
REMARK    5  A    between atoms: C_6  and  C_27
REMARK    6  A    between atoms: O_10  and  C_17
REMARK    7  A    between atoms: O_11  and  C_24
REMARK    8  A    between atoms: C_12  and  O_16
REMARK    9  A    between atoms: O_16  and  C_25
REMARK   10  A    between atoms: C_18  and  C_23
REMARK                            x       y       z     vdW  Elec       q    Type
REMARK                         _______ _______ _______ _____ _____    ______ ____
ROOT
ATOM      1  C   UNL     1      -4.080   0.445  -1.477  1.00  0.00    +0.000 C 
ATOM      2  C   UNL     1      -4.060   1.380   0.813  1.00  0.00    +0.000 C 
ATOM      3  C   UNL     1      -1.329  -1.659  -1.535  1.00  0.00    +0.000 C 
ATOM      4  O   UNL     1       1.025  -2.945   0.126  1.00  0.00    +0.000 OA
ATOM      5  O   UNL     1       2.887   1.989  -0.433  1.00  0.00    +0.000 OA
ATOM      6  C   UNL     1      -2.902  -1.616   1.543  1.00  0.00    +0.000 C 
ATOM      7  C   UNL     1      -3.876  -1.102   0.494  1.00  0.00    +0.000 C 
ATOM      8  C   UNL     1      -1.492  -1.845   0.990  1.00  0.00    +0.000 C 
ATOM      9  C   UNL     1       2.852  -1.518   0.079  1.00  0.00    +0.000 C 
ATOM     10  C   UNL     1       3.377  -0.293  -0.051  1.00  0.00    +0.000 C 
ATOM     11  C   UNL     1       0.981   0.603  -0.294  1.00  0.00    +0.000 C 
ATOM     12  C   UNL     1       0.455  -0.631  -0.158  1.00  0.00    +0.000 C 
ATOM     13  C   UNL     1       1.391  -1.776   0.019  1.00  0.00    +0.000 C 
ATOM     14  C   UNL     1       2.453   0.852  -0.271  1.00  0.00    +0.000 C 
ATOM     15  C   UNL     1      -1.304   1.564  -0.922  1.00  0.00    +0.000 C 
ATOM     16  C   UNL     1       0.163   1.856  -0.524  1.00  0.00    +0.000 C 
ATOM     17  C   UNL     1      -3.444   0.271  -0.084  1.00  0.00    +0.000 C 
ATOM     18  C   UNL     1      -1.065  -0.920  -0.199  1.00  0.00    +0.000 C 
ATOM     19  C   UNL     1      -1.873   0.423  -0.049  1.00  0.00    +0.000 C 
ENDROOT
BRANCH  10  22
ATOM     20  C   UNL     1       5.634  -0.606  -1.163  1.00  0.00    +0.000 C 
ATOM     21  C   UNL     1       5.500  -0.341   1.346  1.00  0.00    +0.000 C 
ATOM     22  C   UNL     1       4.865   0.027   0.000  1.00  0.00    +0.000 C 
ENDBRANCH  10  22
BRANCH   9  23
ATOM     23  O   UNL     1       3.650  -2.637   0.271  1.00  0.00    +0.000 OA
ATOM     24  H   UNL     1       3.024  -3.393   0.315  1.00  0.00    +0.000 HD
ENDBRANCH   9  23
BRANCH  15  25
ATOM     25  O   UNL     1      -1.380   1.253  -2.312  1.00  0.00    +0.000 OA
ATOM     26  H   UNL     1      -1.219   2.081  -2.802  1.00  0.00    +0.000 HD
ENDBRANCH  15  25
BRANCH  16  27
ATOM     27  O   UNL     1       0.199   2.601   0.712  1.00  0.00    +0.000 OA
BRANCH  27  29
ATOM     28  O   UNL     1      -0.327   4.514  -0.449  1.00  0.00    +0.000 OA
ATOM     29  C   UNL     1      -0.013   3.933   0.577  1.00  0.00    +0.000 C 
ENDBRANCH  27  29
ENDBRANCH  16  27
TORSDOF 5
