REMARK  Name = SANCDB_00834_minRM1.pdb
AUTHORGENERATED BY OPEN BABEL 2.3.2
REMARK  15 active torsions:
REMARK  status: ('A' for Active; 'I' for Inactive)
REMARK    1  A    between atoms: C_1  and  C_2
REMARK    2  A    between atoms: C_2  and  C_3
REMARK    3  A    between atoms: C_4  and  C_5
REMARK    4  A    between atoms: C_5  and  C_6
REMARK    5  A    between atoms: C_7  and  C_8
REMARK    6  A    between atoms: C_8  and  C_9
REMARK    7  A    between atoms: C_10  and  C_11
REMARK    8  A    between atoms: C_11  and  C_12
REMARK    9  A    between atoms: C_12  and  C_13
REMARK   10  A    between atoms: C_13  and  C_14
REMARK   11  A    between atoms: C_14  and  C_15
REMARK   12  A    between atoms: C_15  and  C_16
REMARK   13  A    between atoms: C_16  and  C_17
REMARK   14  A    between atoms: C_17  and  C_18
REMARK   15  A    between atoms: C_18  and  O_20
REMARK                            x       y       z     vdW  Elec       q    Type
REMARK                         _______ _______ _______ _____ _____    ______ ____
ROOT
ATOM      1  C   UNL     1      -0.392  -0.527  -0.906  1.00  0.00    +0.000 C 
ENDROOT
BRANCH   1   3
ATOM      2  C   UNL     1       0.654  -2.219  -2.503  1.00  0.00    +0.000 C 
ATOM      3  C   UNL     1      -0.320  -1.364  -2.152  1.00  0.00    +0.000 C 
BRANCH   2   4
ATOM      4  C   UNL     1       1.881  -2.584  -1.717  1.00  0.00    +0.000 C 
BRANCH   4   6
ATOM      5  C   UNL     1       3.947  -1.087  -1.897  1.00  0.00    +0.000 C 
ATOM      6  C   UNL     1       3.121  -2.039  -2.365  1.00  0.00    +0.000 C 
BRANCH   5   7
ATOM      7  C   UNL     1       3.841  -0.324  -0.608  1.00  0.00    +0.000 C 
BRANCH   7   9
ATOM      8  C   UNL     1       4.303   2.191  -0.653  1.00  0.00    +0.000 C 
ATOM      9  C   UNL     1       3.521   1.120  -0.868  1.00  0.00    +0.000 C 
BRANCH   8  11
ATOM     10  C   UNL     1       5.783   2.778   1.268  1.00  0.00    +0.000 C 
ATOM     11  C   UNL     1       5.713   2.204  -0.138  1.00  0.00    +0.000 C 
ENDBRANCH   8  11
ENDBRANCH   7   9
ENDBRANCH   5   7
ENDBRANCH   4   6
ENDBRANCH   2   4
ENDBRANCH   1   3
BRANCH   1  12
ATOM     12  C   UNL     1      -1.490  -1.026   0.035  1.00  0.00    +0.000 C 
BRANCH  12  13
ATOM     13  C   UNL     1      -1.568  -0.164   1.298  1.00  0.00    +0.000 C 
BRANCH  13  14
ATOM     14  C   UNL     1      -2.664  -0.621   2.267  1.00  0.00    +0.000 C 
BRANCH  14  15
ATOM     15  C   UNL     1      -3.971   0.175   2.174  1.00  0.00    +0.000 C 
BRANCH  15  16
ATOM     16  C   UNL     1      -4.694   0.035   0.832  1.00  0.00    +0.000 C 
BRANCH  16  17
ATOM     17  C   UNL     1      -6.075   0.694   0.843  1.00  0.00    +0.000 C 
BRANCH  17  18
ATOM     18  C   UNL     1      -6.007   2.198   0.845  1.00  0.00    +0.000 C 
ATOM     19  O   UNL     1      -5.040   2.900   0.606  1.00  0.00    +0.000 OA
BRANCH  18  20
ATOM     20  O   UNL     1      -7.202   2.754   1.125  1.00  0.00    +0.000 OA
ATOM     21  H   UNL     1      -7.030   3.718   1.081  1.00  0.00    +0.000 HD
ENDBRANCH  18  20
ENDBRANCH  17  18
ENDBRANCH  16  17
ENDBRANCH  15  16
ENDBRANCH  14  15
ENDBRANCH  13  14
ENDBRANCH  12  13
ENDBRANCH   1  12
TORSDOF 14
