REMARK  Name = /srv/my_project/app/compsite/backup/Dave/CORINA_stuff/newPDBs/SANC00434.pdb
AUTHORGENERATED BY OPEN BABEL 2.3.2
REMARK  5 active torsions:
REMARK  status: ('A' for Active; 'I' for Inactive)
REMARK    1  A    between atoms: C_1  and  C_2
REMARK    2  A    between atoms: C_6  and  O_8
REMARK    3  A    between atoms: C_12  and  C_15
REMARK    4  A    between atoms: C_16  and  O_28
REMARK    5  A    between atoms: C_20  and  C_21
REMARK                            x       y       z     vdW  Elec       q    Type
REMARK                         _______ _______ _______ _____ _____    ______ ____
ROOT
ATOM      1  C   UNL     1      -5.883   1.822  -0.938  1.00  0.00    +0.000 C 
ATOM      2  C   UNL     1      -4.861   0.793  -0.553  1.00  0.00    +0.000 A 
ATOM      3  C   UNL     1      -3.506   1.137  -0.461  1.00  0.00    +0.000 A 
ATOM      4  C   UNL     1      -2.545   0.168  -0.134  1.00  0.00    +0.000 A 
ATOM      5  C   UNL     1      -2.932  -1.151   0.092  1.00  0.00    +0.000 A 
ATOM      6  C   UNL     1      -4.285  -1.498  -0.012  1.00  0.00    +0.000 A 
ATOM      7  C   UNL     1      -5.241  -0.537  -0.338  1.00  0.00    +0.000 A 
ATOM      8  C   UNL     1      -1.923  -2.165   0.436  1.00  0.00    +0.000 C 
ATOM      9  O   UNL     1      -2.251  -3.324   0.670  1.00  0.00    +0.000 OA
ATOM     10  C   UNL     1      -0.510  -1.760   0.492  1.00  0.00    +0.000 C 
ATOM     11  C   UNL     1      -0.126  -0.495   0.277  1.00  0.00    +0.000 C 
ATOM     12  C   UNL     1      -1.126   0.567  -0.027  1.00  0.00    +0.000 C 
ATOM     13  O   UNL     1      -0.796   1.739  -0.169  1.00  0.00    +0.000 OA
ENDROOT
BRANCH  11  14
ATOM     14  C   UNL     1       1.312  -0.164   0.314  1.00  0.00    +0.000 A 
ATOM     15  C   UNL     1       2.095  -0.364  -0.841  1.00  0.00    +0.000 A 
ATOM     16  C   UNL     1       3.459  -0.034  -0.849  1.00  0.00    +0.000 A 
ATOM     17  C   UNL     1       4.047   0.490   0.301  1.00  0.00    +0.000 A 
ATOM     18  C   UNL     1       3.280   0.686   1.458  1.00  0.00    +0.000 A 
ATOM     19  C   UNL     1       1.913   0.362   1.479  1.00  0.00    +0.000 A 
ATOM     20  C   UNL     1       1.123   0.616   2.736  1.00  0.00    +0.000 C 
ATOM     21  C   UNL     1       5.481   0.845   0.320  1.00  0.00    +0.000 C 
ATOM     22  O   UNL     1       6.024   1.291   1.321  1.00  0.00    +0.000 OA
ATOM     23  C   UNL     1       6.258   0.641  -0.917  1.00  0.00    +0.000 C 
ATOM     24  C   UNL     1       5.700   0.141  -2.021  1.00  0.00    +0.000 C 
ATOM     25  C   UNL     1       4.276  -0.234  -2.061  1.00  0.00    +0.000 C 
ATOM     26  O   UNL     1       3.781  -0.703  -3.081  1.00  0.00    +0.000 OA
BRANCH  15  27
ATOM     27  O   UNL     1       1.472  -0.893  -1.948  1.00  0.00    +0.000 OA
ATOM     28  H   UNL     1       2.122  -0.951  -2.685  1.00  0.00    +0.000 HD
ENDBRANCH  15  27
ENDBRANCH  11  14
BRANCH   6  29
ATOM     29  O   UNL     1      -4.751  -2.770   0.191  1.00  0.00    +0.000 OA
ATOM     30  H   UNL     1      -3.988  -3.349   0.418  1.00  0.00    +0.000 HD
ENDBRANCH   6  29
TORSDOF 3
