REMARK  Name = SANCDB_00825_minRM1.pdb
AUTHORGENERATED BY OPEN BABEL 2.3.2
REMARK  7 active torsions:
REMARK  status: ('A' for Active; 'I' for Inactive)
REMARK    1  A    between atoms: C_1  and  N_2
REMARK    2  A    between atoms: C_7  and  O_24
REMARK    3  A    between atoms: C_8  and  O_22
REMARK    4  A    between atoms: C_15  and  O_21
REMARK    5  A    between atoms: C_16  and  O_19
REMARK    6  A    between atoms: O_19  and  C_20
REMARK    7  A    between atoms: O_22  and  C_23
REMARK                            x       y       z     vdW  Elec       q    Type
REMARK                         _______ _______ _______ _____ _____    ______ ____
ROOT
ATOM      1  C   UNL     1       4.005  -1.170   0.472  1.00  0.00    +0.000 C 
ATOM      2  N   UNL     1       3.371  -0.844  -0.805  1.00  0.00    +0.000 NA
ATOM      3  C   UNL     1       3.878   0.417  -1.363  1.00  0.00    +0.000 C 
ATOM      4  C   UNL     1       3.526   1.644  -0.517  1.00  0.00    +0.000 C 
ATOM      5  C   UNL     1       2.090   1.639  -0.052  1.00  0.00    +0.000 A 
ATOM      6  C   UNL     1       1.566   2.782   0.550  1.00  0.00    +0.000 A 
ATOM      7  C   UNL     1       0.258   2.782   1.026  1.00  0.00    +0.000 A 
ATOM      8  C   UNL     1      -0.577   1.661   0.857  1.00  0.00    +0.000 A 
ATOM      9  C   UNL     1      -0.077   0.487   0.232  1.00  0.00    +0.000 A 
ATOM     10  C   UNL     1       1.294   0.479  -0.163  1.00  0.00    +0.000 A 
ATOM     11  C   UNL     1       1.885  -0.802  -0.762  1.00  0.00    +0.000 C 
ATOM     12  C   UNL     1       1.266  -2.041  -0.077  1.00  0.00    +0.000 C 
ATOM     13  C   UNL     1      -0.239  -1.990  -0.171  1.00  0.00    +0.000 A 
ATOM     14  C   UNL     1      -0.961  -3.172  -0.386  1.00  0.00    +0.000 A 
ATOM     15  C   UNL     1      -2.338  -3.113  -0.514  1.00  0.00    +0.000 A 
ATOM     16  C   UNL     1      -3.021  -1.900  -0.437  1.00  0.00    +0.000 A 
ATOM     17  C   UNL     1      -2.292  -0.727  -0.215  1.00  0.00    +0.000 A 
ATOM     18  C   UNL     1      -0.893  -0.743  -0.033  1.00  0.00    +0.000 A 
ENDROOT
BRANCH  16  19
ATOM     19  O   UNL     1      -4.380  -1.989  -0.606  1.00  0.00    +0.000 OA
ATOM     20  C   UNL     1      -5.125  -0.794  -0.399  1.00  0.00    +0.000 C 
ENDBRANCH  16  19
BRANCH  15  21
ATOM     21  O   UNL     1      -3.021  -4.278  -0.732  1.00  0.00    +0.000 OA
ATOM     22  H   UNL     1      -3.958  -4.008  -0.797  1.00  0.00    +0.000 HD
ENDBRANCH  15  21
BRANCH   8  23
ATOM     23  O   UNL     1      -1.845   1.611   1.390  1.00  0.00    +0.000 OA
ATOM     24  C   UNL     1      -2.643   2.773   1.182  1.00  0.00    +0.000 C 
ENDBRANCH   8  23
BRANCH   7  25
ATOM     25  O   UNL     1      -0.191   3.893   1.690  1.00  0.00    +0.000 OA
ATOM     26  H   UNL     1       0.556   4.492   1.847  1.00  0.00    +0.000 HD
ENDBRANCH   7  25
TORSDOF 4
