REMARK  Name = /srv/my_project/app/compsite/backup/Dave/CORINA_stuff/newPDBs/SANC00501.pdb
AUTHORGENERATED BY OPEN BABEL 2.3.2
REMARK  37 active torsions:
REMARK  status: ('A' for Active; 'I' for Inactive)
REMARK    1  A    between atoms: C_2  and  O_3
REMARK    2  A    between atoms: O_3  and  C_4
REMARK    3  A    between atoms: C_8  and  O_10
REMARK    4  A    between atoms: O_10  and  C_11
REMARK    5  A    between atoms: C_13  and  O_15
REMARK    6  A    between atoms: C_18  and  O_20
REMARK    7  A    between atoms: O_20  and  C_21
REMARK    8  A    between atoms: C_32  and  O_34
REMARK    9  A    between atoms: C_37  and  C_38
REMARK   10  A    between atoms: C_43  and  C_44
REMARK   11  A    between atoms: C_45  and  O_46
REMARK   12  A    between atoms: C_45  and  C_47
REMARK   13  A    between atoms: C_47  and  C_49
REMARK   14  A    between atoms: C_47  and  C_50
REMARK   15  A    between atoms: C_50  and  C_52
REMARK   16  A    between atoms: C_52  and  C_53
REMARK   17  A    between atoms: C_53  and  C_54
REMARK   18  A    between atoms: C_54  and  C_55
REMARK   19  A    between atoms: C_54  and  C_56
REMARK   20  A    between atoms: C_57  and  O_59
REMARK   21  A    between atoms: O_59  and  C_60
REMARK   22  A    between atoms: C_60  and  C_61
REMARK   23  A    between atoms: C_63  and  O_65
REMARK   24  A    between atoms: O_65  and  C_66
REMARK   25  A    between atoms: C_66  and  C_68
REMARK   26  A    between atoms: C_70  and  O_71
REMARK   27  A    between atoms: O_71  and  C_72
REMARK   28  A    between atoms: C_73  and  O_74
REMARK   29  A    between atoms: O_74  and  C_75
REMARK   30  A    between atoms: C_76  and  O_77
REMARK   31  A    between atoms: O_77  and  C_78
REMARK   32  A    between atoms: C_80  and  O_82
REMARK   33  A    between atoms: C_84  and  C_86
REMARK   34  A    between atoms: C_86  and  O_87
REMARK   35  A    between atoms: C_88  and  O_90
REMARK   36  A    between atoms: C_91  and  O_93
REMARK   37  A    between atoms: C_94  and  O_96
REMARK                            x       y       z     vdW  Elec       q    Type
REMARK                         _______ _______ _______ _____ _____    ______ ____
ROOT
ATOM      1  C   UNL     1       0.538  -0.336  -3.651  1.00  0.00    +0.000 C 
ATOM      2  C   UNL     1       1.231  -1.619  -4.153  1.00  0.00    +0.000 C 
ATOM      3  C   UNL     1       1.055  -2.777  -3.169  1.00  0.00    +0.000 C 
ATOM      4  O   UNL     1      -0.114  -2.593  -2.377  1.00  0.00    +0.000 OA
ATOM      5  C   UNL     1      -0.007  -1.472  -1.490  1.00  0.00    +0.000 C 
ATOM      6  C   UNL     1       0.722  -0.257  -2.126  1.00  0.00    +0.000 C 
ENDROOT
BRANCH   2   7
ATOM      7  O   UNL     1       2.635  -1.392  -4.345  1.00  0.00    +0.000 OA
ATOM      8  H   UNL     1       2.706  -0.501  -4.756  1.00  0.00    +0.000 HD
ENDBRANCH   2   7
BRANCH   6   9
ATOM      9  O   UNL     1       0.133   0.953  -1.582  1.00  0.00    +0.000 OA
BRANCH   9  10
ATOM     10  C   UNL     1       0.996   1.935  -1.206  1.00  0.00    +0.000 C 
ATOM     11  C   UNL     1       0.247   3.128  -0.690  1.00  0.00    +0.000 C 
ATOM     12  O   UNL     1       2.212   1.898  -1.302  1.00  0.00    +0.000 OA
ENDBRANCH   9  10
ENDBRANCH   6   9
BRANCH   5  13
ATOM     13  O   UNL     1       0.658  -1.837  -0.275  1.00  0.00    +0.000 OA
BRANCH  13  14
ATOM     14  C   UNL     1      -0.070  -2.781   0.497  1.00  0.00    +0.000 C 
ATOM     15  C   UNL     1       0.908  -3.815   1.083  1.00  0.00    +0.000 C 
ATOM     16  C   UNL     1       0.184  -4.290   2.333  1.00  0.00    +0.000 C 
ATOM     17  C   UNL     1       0.929  -5.226   3.294  1.00  0.00    +0.000 C 
ATOM     18  C   UNL     1       1.353  -6.520   2.579  1.00  0.00    +0.000 C 
ATOM     19  C   UNL     1       1.752  -7.616   3.516  1.00  0.00    +0.000 C 
ATOM     20  C   UNL     1       1.516  -7.616   4.840  1.00  0.00    +0.000 C 
ATOM     21  C   UNL     1       1.994  -8.771   5.694  1.00  0.00    +0.000 C 
ATOM     22  C   UNL     1       0.886  -9.326   6.590  1.00  0.00    +0.000 C 
ATOM     23  C   UNL     1       0.227  -8.220   7.408  1.00  0.00    +0.000 C 
ATOM     24  C   UNL     1      -0.305  -7.105   6.508  1.00  0.00    +0.000 C 
ATOM     25  C   UNL     1       0.761  -6.485   5.555  1.00  0.00    +0.000 C 
ATOM     26  C   UNL     1       1.784  -5.676   6.387  1.00  0.00    +0.000 C 
ATOM     27  C   UNL     1       0.015  -5.564   4.507  1.00  0.00    +0.000 C 
ATOM     28  C   UNL     1      -0.651  -4.307   5.128  1.00  0.00    +0.000 C 
ATOM     29  C   UNL     1      -1.290  -3.363   4.092  1.00  0.00    +0.000 C 
ATOM     30  C   UNL     1      -0.296  -2.964   2.981  1.00  0.00    +0.000 C 
ATOM     31  C   UNL     1       0.880  -2.184   3.617  1.00  0.00    +0.000 C 
ATOM     32  C   UNL     1      -0.902  -2.208   1.726  1.00  0.00    +0.000 C 
BRANCH  32  33
ATOM     33  C   UNL     1      -1.073  -0.661   1.758  1.00  0.00    +0.000 C 
ATOM     34  C   UNL     1       0.168   0.234   1.861  1.00  0.00    +0.000 C 
BRANCH  33  35
ATOM     35  C   UNL     1      -2.073  -0.223   2.838  1.00  0.00    +0.000 C 
ATOM     36  O   UNL     1      -1.696   0.172   3.945  1.00  0.00    +0.000 OA
BRANCH  35  37
ATOM     37  C   UNL     1      -3.558  -0.312   2.509  1.00  0.00    +0.000 C 
BRANCH  37  38
ATOM     38  C   UNL     1      -4.363   0.889   3.012  1.00  0.00    +0.000 C 
BRANCH  38  39
ATOM     39  C   UNL     1      -4.451   2.062   2.013  1.00  0.00    +0.000 C 
ATOM     40  C   UNL     1      -5.348   3.162   2.588  1.00  0.00    +0.000 C 
ATOM     41  C   UNL     1      -3.088   2.648   1.649  1.00  0.00    +0.000 C 
ENDBRANCH  38  39
ENDBRANCH  37  38
ENDBRANCH  35  37
ENDBRANCH  33  35
ENDBRANCH  32  33
BRANCH  32  42
ATOM     42  O   UNL     1      -2.257  -2.698   1.505  1.00  0.00    +0.000 OA
ATOM     43  H   UNL     1      -2.246  -3.666   1.416  1.00  0.00    +0.000 HD
ENDBRANCH  32  42
BRANCH  22  44
ATOM     44  O   UNL     1       1.418 -10.312   7.473  1.00  0.00    +0.000 OA
ATOM     45  H   UNL     1       2.079  -9.881   8.041  1.00  0.00    +0.000 HD
ENDBRANCH  22  44
ENDBRANCH  13  14
ENDBRANCH   5  13
BRANCH   1  46
ATOM     46  O   UNL     1       1.148   0.745  -4.368  1.00  0.00    +0.000 OA
BRANCH  46  50
ATOM     47  C   UNL     1      -1.198   3.965  -5.490  1.00  0.00    +0.000 C 
ATOM     48  C   UNL     1      -1.366   2.593  -6.155  1.00  0.00    +0.000 C 
ATOM     49  O   UNL     1      -0.807   1.524  -5.381  1.00  0.00    +0.000 OA
ATOM     50  C   UNL     1       0.321   1.884  -4.580  1.00  0.00    +0.000 C 
ATOM     51  C   UNL     1       1.162   3.003  -5.226  1.00  0.00    +0.000 C 
ATOM     52  C   UNL     1       0.304   4.277  -5.364  1.00  0.00    +0.000 C 
BRANCH  52  53
ATOM     53  O   UNL     1       0.741   5.014  -6.516  1.00  0.00    +0.000 OA
ATOM     54  H   UNL     1       1.687   5.213  -6.392  1.00  0.00    +0.000 HD
ENDBRANCH  52  53
BRANCH  51  55
ATOM     55  O   UNL     1       2.308   3.351  -4.408  1.00  0.00    +0.000 OA
BRANCH  55  56
ATOM     56  C   UNL     1       3.419   2.590  -4.579  1.00  0.00    +0.000 C 
ATOM     57  O   UNL     1       3.564   1.713  -5.416  1.00  0.00    +0.000 OA
BRANCH  56  58
ATOM     58  C   UNL     1       4.475   2.967  -3.599  1.00  0.00    +0.000 A 
ATOM     59  C   UNL     1       5.631   2.172  -3.551  1.00  0.00    +0.000 A 
ATOM     60  C   UNL     1       6.660   2.477  -2.658  1.00  0.00    +0.000 A 
ATOM     61  C   UNL     1       6.508   3.582  -1.803  1.00  0.00    +0.000 A 
ATOM     62  C   UNL     1       5.361   4.395  -1.849  1.00  0.00    +0.000 A 
ATOM     63  C   UNL     1       4.345   4.077  -2.752  1.00  0.00    +0.000 A 
BRANCH  62  64
ATOM     64  O   UNL     1       5.337   5.457  -0.982  1.00  0.00    +0.000 OA
ATOM     65  C   UNL     1       4.168   6.264  -0.961  1.00  0.00    +0.000 C 
ENDBRANCH  62  64
BRANCH  61  66
ATOM     66  O   UNL     1       7.535   3.918  -0.947  1.00  0.00    +0.000 OA
ATOM     67  C   UNL     1       7.357   3.250   0.302  1.00  0.00    +0.000 C 
ENDBRANCH  61  66
BRANCH  60  68
ATOM     68  O   UNL     1       7.829   1.771  -2.539  1.00  0.00    +0.000 OA
ATOM     69  C   UNL     1       8.007   0.647  -3.391  1.00  0.00    +0.000 C 
ENDBRANCH  60  68
ENDBRANCH  56  58
ENDBRANCH  55  56
ENDBRANCH  51  55
BRANCH  47  70
ATOM     70  O   UNL     1      -1.741   3.924  -4.153  1.00  0.00    +0.000 OA
BRANCH  70  71
ATOM     71  C   UNL     1      -3.157   4.169  -4.108  1.00  0.00    +0.000 C 
ATOM     72  O   UNL     1      -3.390   5.553  -4.351  1.00  0.00    +0.000 OA
ATOM     73  C   UNL     1      -4.649   6.072  -3.880  1.00  0.00    +0.000 C 
ATOM     74  C   UNL     1      -5.693   4.994  -3.523  1.00  0.00    +0.000 C 
ATOM     75  C   UNL     1      -5.134   3.922  -2.573  1.00  0.00    +0.000 C 
ATOM     76  C   UNL     1      -3.616   3.765  -2.700  1.00  0.00    +0.000 C 
BRANCH  76  77
ATOM     77  O   UNL     1      -3.248   2.415  -2.367  1.00  0.00    +0.000 OA
ATOM     78  H   UNL     1      -2.362   2.281  -2.755  1.00  0.00    +0.000 HD
ENDBRANCH  76  77
BRANCH  75  79
ATOM     79  O   UNL     1      -5.450   4.236  -1.209  1.00  0.00    +0.000 OA
ATOM     80  H   UNL     1      -5.172   3.458  -0.689  1.00  0.00    +0.000 HD
ENDBRANCH  75  79
BRANCH  74  81
ATOM     81  O   UNL     1      -6.082   4.330  -4.743  1.00  0.00    +0.000 OA
ATOM     82  H   UNL     1      -6.622   4.964  -5.249  1.00  0.00    +0.000 HD
ENDBRANCH  74  81
BRANCH  73  83
ATOM     83  C   UNL     1      -4.390   7.051  -2.727  1.00  0.00    +0.000 C 
BRANCH  83  84
ATOM     84  O   UNL     1      -5.582   7.748  -2.390  1.00  0.00    +0.000 OA
ATOM     85  H   UNL     1      -5.384   8.294  -1.608  1.00  0.00    +0.000 HD
ENDBRANCH  83  84
ENDBRANCH  73  83
ENDBRANCH  70  71
ENDBRANCH  47  70
ENDBRANCH  46  50
ENDBRANCH   1  46
TORSDOF 28
