REMARK  Name = /srv/my_project/app/compsite/backup/Dave/CORINA_stuff/newPDBs/SANC00694.pdb
AUTHORGENERATED BY OPEN BABEL 2.3.2
REMARK  19 active torsions:
REMARK  status: ('A' for Active; 'I' for Inactive)
REMARK    1  A    between atoms: C_2  and  O_3
REMARK    2  A    between atoms: O_3  and  C_4
REMARK    3  A    between atoms: C_15  and  O_17
REMARK    4  A    between atoms: C_20  and  C_21
REMARK    5  A    between atoms: C_24  and  O_26
REMARK    6  A    between atoms: C_28  and  C_29
REMARK    7  A    between atoms: C_30  and  C_32
REMARK    8  A    between atoms: C_32  and  C_34
REMARK    9  A    between atoms: C_32  and  C_35
REMARK   10  A    between atoms: C_35  and  O_37
REMARK   11  A    between atoms: C_35  and  C_38
REMARK   12  A    between atoms: C_38  and  C_39
REMARK   13  A    between atoms: C_39  and  C_40
REMARK   14  A    between atoms: C_40  and  C_41
REMARK   15  A    between atoms: C_40  and  C_42
REMARK   16  A    between atoms: C_44  and  C_46
REMARK   17  A    between atoms: C_47  and  O_49
REMARK   18  A    between atoms: C_50  and  O_52
REMARK   19  A    between atoms: C_53  and  O_55
REMARK                            x       y       z     vdW  Elec       q    Type
REMARK                         _______ _______ _______ _____ _____    ______ ____
ROOT
ATOM      1  C   UNL     1      -0.588   1.175  -0.949  1.00  0.00    +0.000 C 
ATOM      2  C   UNL     1       0.500   1.512   0.087  1.00  0.00    +0.000 C 
ATOM      3  C   UNL     1       1.605   0.505  -0.190  1.00  0.00    +0.000 C 
ATOM      4  C   UNL     1       2.673   0.314   0.893  1.00  0.00    +0.000 C 
ATOM      5  C   UNL     1       3.357   1.651   1.213  1.00  0.00    +0.000 C 
ATOM      6  C   UNL     1       4.599   1.500   2.026  1.00  0.00    +0.000 C 
ATOM      7  C   UNL     1       5.251   0.340   2.216  1.00  0.00    +0.000 C 
ATOM      8  C   UNL     1       6.488   0.311   3.090  1.00  0.00    +0.000 C 
ATOM      9  C   UNL     1       7.671  -0.340   2.377  1.00  0.00    +0.000 C 
ATOM     10  C   UNL     1       7.296  -1.724   1.864  1.00  0.00    +0.000 C 
ATOM     11  C   UNL     1       6.072  -1.671   0.949  1.00  0.00    +0.000 C 
ATOM     12  C   UNL     1       4.814  -0.989   1.570  1.00  0.00    +0.000 C 
ATOM     13  C   UNL     1       4.244  -1.898   2.686  1.00  0.00    +0.000 C 
ATOM     14  C   UNL     1       3.728  -0.735   0.431  1.00  0.00    +0.000 C 
ATOM     15  C   UNL     1       3.054  -2.018  -0.140  1.00  0.00    +0.000 C 
ATOM     16  C   UNL     1       1.902  -1.742  -1.127  1.00  0.00    +0.000 C 
ATOM     17  C   UNL     1       0.842  -0.789  -0.551  1.00  0.00    +0.000 C 
ATOM     18  C   UNL     1       0.119  -1.449   0.646  1.00  0.00    +0.000 C 
ATOM     19  C   UNL     1      -0.187  -0.209  -1.580  1.00  0.00    +0.000 C 
ENDROOT
BRANCH   9  20
ATOM     20  O   UNL     1       8.763  -0.452   3.289  1.00  0.00    +0.000 OA
ATOM     21  H   UNL     1       9.500  -0.864   2.807  1.00  0.00    +0.000 HD
ENDBRANCH   9  20
BRANCH  15  22
ATOM     22  O   UNL     1       4.022  -2.804  -0.836  1.00  0.00    +0.000 OA
ATOM     23  H   UNL     1       3.571  -3.599  -1.171  1.00  0.00    +0.000 HD
ENDBRANCH  15  22
BRANCH  19  24
ATOM     24  C   UNL     1      -1.408  -1.080  -2.024  1.00  0.00    +0.000 C 
ATOM     25  C   UNL     1      -0.963  -2.424  -2.616  1.00  0.00    +0.000 C 
BRANCH  24  26
ATOM     26  C   UNL     1      -2.302  -0.306  -3.039  1.00  0.00    +0.000 C 
BRANCH  26  27
ATOM     27  O   UNL     1      -1.526  -0.009  -4.207  1.00  0.00    +0.000 OA
ATOM     28  H   UNL     1      -2.096   0.498  -4.809  1.00  0.00    +0.000 HD
ENDBRANCH  26  27
BRANCH  26  29
ATOM     29  C   UNL     1      -3.594  -1.016  -3.487  1.00  0.00    +0.000 C 
BRANCH  29  30
ATOM     30  C   UNL     1      -4.487  -1.463  -2.326  1.00  0.00    +0.000 C 
BRANCH  30  31
ATOM     31  C   UNL     1      -5.883  -1.976  -2.728  1.00  0.00    +0.000 C 
ATOM     32  C   UNL     1      -5.814  -3.177  -3.670  1.00  0.00    +0.000 C 
ATOM     33  C   UNL     1      -6.758  -0.874  -3.327  1.00  0.00    +0.000 C 
ENDBRANCH  30  31
ENDBRANCH  29  30
ENDBRANCH  26  29
ENDBRANCH  24  26
ENDBRANCH  19  24
BRANCH   1  34
ATOM     34  O   UNL     1      -1.865   1.103  -0.315  1.00  0.00    +0.000 OA
BRANCH  34  35
ATOM     35  C   UNL     1      -2.486   2.382  -0.119  1.00  0.00    +0.000 C 
ATOM     36  O   UNL     1      -1.859   3.091   0.952  1.00  0.00    +0.000 OA
ATOM     37  C   UNL     1      -2.439   2.786   2.218  1.00  0.00    +0.000 C 
ATOM     38  C   UNL     1      -1.521   3.337   3.304  1.00  0.00    +0.000 C 
ATOM     39  C   UNL     1      -3.843   3.415   2.300  1.00  0.00    +0.000 C 
ATOM     40  C   UNL     1      -4.626   3.224   0.985  1.00  0.00    +0.000 C 
ATOM     41  C   UNL     1      -4.003   2.140   0.102  1.00  0.00    +0.000 C 
BRANCH  39  42
ATOM     42  O   UNL     1      -4.554   2.824   3.391  1.00  0.00    +0.000 OA
ATOM     43  H   UNL     1      -5.370   3.336   3.532  1.00  0.00    +0.000 HD
ENDBRANCH  39  42
BRANCH  40  44
ATOM     44  O   UNL     1      -4.665   4.444   0.218  1.00  0.00    +0.000 OA
ATOM     45  H   UNL     1      -5.107   5.121   0.761  1.00  0.00    +0.000 HD
ENDBRANCH  40  44
BRANCH  41  46
ATOM     46  O   UNL     1      -4.703   2.109  -1.159  1.00  0.00    +0.000 OA
ATOM     47  H   UNL     1      -4.821   3.050  -1.402  1.00  0.00    +0.000 HD
ENDBRANCH  41  46
ENDBRANCH  34  35
ENDBRANCH   1  34
TORSDOF 13
