REMARK  Name = /srv/my_project/app/compsite/backup/Dave/CORINA_stuff/newPDBs/SANC00321.pdb
AUTHORGENERATED BY OPEN BABEL 2.3.2
REMARK  4 active torsions:
REMARK  status: ('A' for Active; 'I' for Inactive)
REMARK    1  A    between atoms: C_4  and  O_6
REMARK    2  A    between atoms: O_6  and  C_7
REMARK    3  A    between atoms: C_7  and  C_8
REMARK    4  A    between atoms: C_25  and  O_27
REMARK                            x       y       z     vdW  Elec       q    Type
REMARK                         _______ _______ _______ _____ _____    ______ ____
ROOT
ATOM      1  C   UNL     1       0.597  -0.672   0.618  1.00  0.00    +0.000 C 
ATOM      2  C   UNL     1       2.117  -0.496   0.551  1.00  0.00    +0.000 C 
ATOM      3  C   UNL     1       2.473   0.994   0.681  1.00  0.00    +0.000 C 
ATOM      4  C   UNL     1       1.617   1.857  -0.210  1.00  0.00    +0.000 C 
ATOM      5  C   UNL     1       0.460   1.452  -0.763  1.00  0.00    +0.000 C 
ATOM      6  C   UNL     1      -0.153   0.087  -0.513  1.00  0.00    +0.000 C 
ATOM      7  C   UNL     1      -1.647   0.105  -0.115  1.00  0.00    +0.000 A 
ATOM      8  C   UNL     1      -2.523   1.153  -0.447  1.00  0.00    +0.000 A 
ATOM      9  C   UNL     1      -3.849   1.034  -0.082  1.00  0.00    +0.000 A 
ATOM     10  O   UNL     1      -4.820   1.956  -0.324  1.00  0.00    +0.000 OA
ATOM     11  C   UNL     1      -5.963   1.310   0.275  1.00  0.00    +0.000 C 
ATOM     12  O   UNL     1      -5.660   0.019   0.842  1.00  0.00    +0.000 OA
ATOM     13  C   UNL     1      -4.329  -0.070   0.580  1.00  0.00    +0.000 A 
ATOM     14  C   UNL     1      -3.513  -1.126   0.917  1.00  0.00    +0.000 A 
ATOM     15  C   UNL     1      -2.157  -1.049   0.562  1.00  0.00    +0.000 A 
ATOM     16  C   UNL     1      -1.226  -2.191   0.947  1.00  0.00    +0.000 C 
ATOM     17  N   UNL     1       0.158  -2.080   0.424  1.00  0.00    +0.000 NA
ATOM     18  C   UNL     1       0.174  -2.274  -1.046  1.00  0.00    +0.000 C 
ATOM     19  C   UNL     1      -0.027  -0.897  -1.715  1.00  0.00    +0.000 C 
ENDROOT
BRANCH  19  20
ATOM     20  O   UNL     1       1.080  -0.594  -2.569  1.00  0.00    +0.000 OA
ATOM     21  H   UNL     1       1.115  -1.279  -3.259  1.00  0.00    +0.000 HD
ENDBRANCH  19  20
BRANCH   3  22
ATOM     22  O   UNL     1       3.836   1.199   0.273  1.00  0.00    +0.000 OA
BRANCH  22  23
ATOM     23  C   UNL     1       4.778   0.928   1.215  1.00  0.00    +0.000 C 
ATOM     24  C   UNL     1       6.145   1.162   0.648  1.00  0.00    +0.000 C 
ATOM     25  O   UNL     1       4.560   0.552   2.357  1.00  0.00    +0.000 OA
ENDBRANCH  22  23
ENDBRANCH   3  22
TORSDOF 3
