REMARK  Name = SANCDB_00887_minRM1.pdb
AUTHORGENERATED BY OPEN BABEL 2.3.2
REMARK  12 active torsions:
REMARK  status: ('A' for Active; 'I' for Inactive)
REMARK    1  A    between atoms: C_1  and  C_2
REMARK    2  A    between atoms: C_2  and  C_3
REMARK    3  A    between atoms: C_3  and  C_4
REMARK    4  A    between atoms: C_3  and  C_5
REMARK    5  A    between atoms: C_5  and  C_7
REMARK    6  A    between atoms: C_8  and  O_20
REMARK    7  A    between atoms: C_10  and  O_19
REMARK    8  A    between atoms: C_11  and  C_14
REMARK    9  A    between atoms: C_12  and  O_13
REMARK   10  A    between atoms: C_14  and  C_15
REMARK   11  A    between atoms: C_16  and  C_17
REMARK   12  A    between atoms: C_16  and  C_18
REMARK                            x       y       z     vdW  Elec       q    Type
REMARK                         _______ _______ _______ _____ _____    ______ ____
ROOT
ATOM      1  C   UNL     1       0.985  -0.207   1.213  1.00  0.00    +0.000 A 
ATOM      2  C   UNL     1       1.579  -1.458   1.038  1.00  0.00    +0.000 A 
ATOM      3  C   UNL     1       0.789  -2.593   0.847  1.00  0.00    +0.000 A 
ATOM      4  C   UNL     1      -0.602  -2.474   0.851  1.00  0.00    +0.000 A 
ATOM      5  C   UNL     1      -1.232  -1.241   1.073  1.00  0.00    +0.000 A 
ATOM      6  C   UNL     1      -0.418  -0.114   1.274  1.00  0.00    +0.000 A 
ENDROOT
BRANCH   1   7
ATOM      7  C   UNL     1       1.771   1.041   1.374  1.00  0.00    +0.000 C 
ATOM      8  O   UNL     1       1.438   1.785   2.304  1.00  0.00    +0.000 OA
BRANCH   7   9
ATOM      9  C   UNL     1       2.858   1.463   0.382  1.00  0.00    +0.000 C 
ATOM     10  C   UNL     1       4.245   1.299   0.996  1.00  0.00    +0.000 C 
BRANCH   9  12
ATOM     11  C   UNL     1       3.551   1.623  -2.068  1.00  0.00    +0.000 C 
ATOM     12  C   UNL     1       2.731   0.867  -1.029  1.00  0.00    +0.000 C 
ENDBRANCH   9  12
ENDBRANCH   7   9
ENDBRANCH   1   7
BRANCH   6  13
ATOM     13  O   UNL     1      -1.034   1.085   1.546  1.00  0.00    +0.000 OA
ATOM     14  H   UNL     1      -0.379   1.667   1.992  1.00  0.00    +0.000 HD
ENDBRANCH   6  13
BRANCH   4  15
ATOM     15  O   UNL     1      -1.377  -3.583   0.648  1.00  0.00    +0.000 OA
ATOM     16  H   UNL     1      -0.811  -4.359   0.501  1.00  0.00    +0.000 HD
ENDBRANCH   4  15
BRANCH   2  17
ATOM     17  O   UNL     1       2.937  -1.591   1.083  1.00  0.00    +0.000 OA
ATOM     18  H   UNL     1       3.180  -2.531   1.040  1.00  0.00    +0.000 HD
ENDBRANCH   2  17
BRANCH   5  19
ATOM     19  C   UNL     1      -2.742  -1.127   1.069  1.00  0.00    +0.000 C 
BRANCH  19  20
ATOM     20  C   UNL     1      -3.303  -0.994  -0.324  1.00  0.00    +0.000 C 
ATOM     21  C   UNL     1      -3.894   0.077  -0.891  1.00  0.00    +0.000 C 
ATOM     22  C   UNL     1      -4.096   1.410  -0.227  1.00  0.00    +0.000 C 
ATOM     23  C   UNL     1      -4.404   0.009  -2.307  1.00  0.00    +0.000 C 
ENDBRANCH  19  20
ENDBRANCH   5  19
TORSDOF 8
