REMARK  Name = SANC00248.pdb
AUTHORGENERATED BY OPEN BABEL 2.3.2
REMARK  17 active torsions:
REMARK  status: ('A' for Active; 'I' for Inactive)
REMARK    1  A    between atoms: C_1  and  C_2
REMARK    2  A    between atoms: C_2  and  C_3
REMARK    3  A    between atoms: C_4  and  C_5
REMARK    4  A    between atoms: C_5  and  C_6
REMARK    5  A    between atoms: C_6  and  C_7
REMARK    6  A    between atoms: C_7  and  C_8
REMARK    7  A    between atoms: C_10  and  C_11
REMARK    8  A    between atoms: C_11  and  C_12
REMARK    9  A    between atoms: C_12  and  C_13
REMARK   10  A    between atoms: C_13  and  C_14
REMARK   11  A    between atoms: C_15  and  C_16
REMARK   12  A    between atoms: C_16  and  C_17
REMARK   13  A    between atoms: C_17  and  C_18
REMARK   14  A    between atoms: C_18  and  C_19
REMARK   15  A    between atoms: C_20  and  C_21
REMARK   16  A    between atoms: C_21  and  C_22
REMARK   17  A    between atoms: C_27  and  C_28
REMARK                            x       y       z     vdW  Elec       q    Type
REMARK                         _______ _______ _______ _____ _____    ______ ____
ROOT
ATOM      1  C   UNL     1       0.670  -0.599   0.073  1.00  0.00    +0.000 C 
ATOM      2  C   UNL     1       0.572  -2.095  -0.070  1.00  0.00    +0.000 C 
ATOM      3  C   UNL     1      -0.391   0.228   0.158  1.00  0.00    +0.000 C 
ENDROOT
BRANCH   1   4
ATOM      4  C   UNL     1       2.080  -0.038   0.072  1.00  0.00    +0.000 C 
BRANCH   4   5
ATOM      5  C   UNL     1       2.840  -0.354   1.365  1.00  0.00    +0.000 C 
BRANCH   5   7
ATOM      6  C   UNL     1       5.402  -0.314   1.102  1.00  0.00    +0.000 C 
ATOM      7  C   UNL     1       4.212   0.265   1.362  1.00  0.00    +0.000 C 
BRANCH   6   8
ATOM      8  C   UNL     1       5.507  -1.753   0.727  1.00  0.00    +0.000 C 
ATOM      9  O   UNL     1       6.575  -2.343   0.622  1.00  0.00    +0.000 OA
ENDBRANCH   6   8
BRANCH   6  10
ATOM     10  C   UNL     1       6.698   0.460   1.196  1.00  0.00    +0.000 C 
BRANCH  10  11
ATOM     11  C   UNL     1       7.009   1.308  -0.046  1.00  0.00    +0.000 C 
BRANCH  11  15
ATOM     12  C   UNL     1       8.518  -0.647  -3.092  1.00  0.00    +0.000 C 
ATOM     13  C   UNL     1       8.448   0.156  -1.819  1.00  0.00    +0.000 C 
ATOM     14  C   UNL     1       9.787   0.485  -1.221  1.00  0.00    +0.000 C 
ATOM     15  C   UNL     1       7.257   0.500  -1.290  1.00  0.00    +0.000 C 
ENDBRANCH  11  15
ENDBRANCH  10  11
ENDBRANCH   6  10
ENDBRANCH   5   7
ENDBRANCH   4   5
ENDBRANCH   1   4
BRANCH   3  16
ATOM     16  C   UNL     1      -1.847  -0.152   0.199  1.00  0.00    +0.000 C 
BRANCH  16  17
ATOM     17  C   UNL     1      -2.528   0.089  -1.153  1.00  0.00    +0.000 C 
BRANCH  17  18
ATOM     18  C   UNL     1      -4.014  -0.220  -1.123  1.00  0.00    +0.000 C 
ATOM     19  C   UNL     1      -4.365  -1.683  -1.174  1.00  0.00    +0.000 C 
ATOM     20  C   UNL     1      -4.915   0.784  -1.073  1.00  0.00    +0.000 C 
BRANCH  20  21
ATOM     21  C   UNL     1      -6.419   0.678  -1.081  1.00  0.00    +0.000 C 
BRANCH  21  22
ATOM     22  C   UNL     1      -7.072   0.765   0.279  1.00  0.00    +0.000 C 
ATOM     23  C   UNL     1      -6.435   0.816   1.459  1.00  0.00    +0.000 C 
ATOM     24  C   UNL     1      -7.151   0.897   2.743  1.00  0.00    +0.000 C 
ATOM     25  O   UNL     1      -6.547   0.945   3.806  1.00  0.00    +0.000 OA
ATOM     26  C   UNL     1      -8.621   0.919   2.700  1.00  0.00    +0.000 C 
ATOM     27  C   UNL     1      -9.295   0.867   1.544  1.00  0.00    +0.000 C 
ATOM     28  C   UNL     1     -10.790   0.887   1.470  1.00  0.00    +0.000 C 
ATOM     29  C   UNL     1      -8.565   0.784   0.249  1.00  0.00    +0.000 C 
ATOM     30  O   UNL     1      -9.177   0.733  -0.813  1.00  0.00    +0.000 OA
ENDBRANCH  21  22
ENDBRANCH  20  21
ENDBRANCH  17  18
ENDBRANCH  16  17
ENDBRANCH   3  16
TORSDOF 12
