REMARK  Name = /srv/my_project/app/compsite/backup/Dave/CORINA_stuff/newPDBs/SANC00674.pdb
AUTHORGENERATED BY OPEN BABEL 2.3.2
REMARK  10 active torsions:
REMARK  status: ('A' for Active; 'I' for Inactive)
REMARK    1  A    between atoms: C_1  and  O_2
REMARK    2  A    between atoms: O_2  and  C_3
REMARK    3  A    between atoms: C_6  and  C_7
REMARK    4  A    between atoms: C_8  and  C_9
REMARK    5  A    between atoms: C_11  and  O_12
REMARK    6  A    between atoms: C_13  and  O_14
REMARK    7  A    between atoms: O_14  and  C_15
REMARK    8  A    between atoms: C_16  and  O_17
REMARK    9  A    between atoms: O_17  and  C_18
REMARK   10  A    between atoms: C_21  and  O_22
REMARK                            x       y       z     vdW  Elec       q    Type
REMARK                         _______ _______ _______ _____ _____    ______ ____
ROOT
ATOM      1  C   UNL     1       0.960   2.780  -0.775  1.00  0.00    +0.000 C 
ATOM      2  C   UNL     1      -0.381   2.785  -0.881  1.00  0.00    +0.000 C 
ENDROOT
BRANCH   1   6
ATOM      3  C   UNL     1       3.423  -0.446   0.607  1.00  0.00    +0.000 A 
ATOM      4  C   UNL     1       2.415   0.066   1.427  1.00  0.00    +0.000 A 
ATOM      5  C   UNL     1       1.614   1.126   0.985  1.00  0.00    +0.000 A 
ATOM      6  C   UNL     1       1.802   1.682  -0.285  1.00  0.00    +0.000 A 
ATOM      7  C   UNL     1       2.824   1.188  -1.101  1.00  0.00    +0.000 A 
ATOM      8  C   UNL     1       3.621   0.131  -0.655  1.00  0.00    +0.000 A 
BRANCH   3  10
ATOM      9  C   UNL     1       4.052  -2.108   2.196  1.00  0.00    +0.000 C 
ATOM     10  O   UNL     1       4.256  -1.482   0.938  1.00  0.00    +0.000 OA
ENDBRANCH   3  10
BRANCH   8  11
ATOM     11  O   UNL     1       4.611  -0.360  -1.466  1.00  0.00    +0.000 OA
ATOM     12  H   UNL     1       4.650   0.166  -2.279  1.00  0.00    +0.000 HD
ENDBRANCH   8  11
ENDBRANCH   1   6
BRANCH   2  13
ATOM     13  C   UNL     1      -1.304   1.686  -0.558  1.00  0.00    +0.000 A 
ATOM     14  C   UNL     1      -2.436   1.959   0.219  1.00  0.00    +0.000 A 
ATOM     15  C   UNL     1      -3.333   0.937   0.525  1.00  0.00    +0.000 A 
ATOM     16  C   UNL     1      -3.114  -0.361   0.052  1.00  0.00    +0.000 A 
ATOM     17  C   UNL     1      -1.977  -0.652  -0.713  1.00  0.00    +0.000 A 
ATOM     18  C   UNL     1      -1.097   0.384  -1.042  1.00  0.00    +0.000 A 
BRANCH  15  19
ATOM     19  O   UNL     1      -4.438   1.196   1.289  1.00  0.00    +0.000 OA
ATOM     20  H   UNL     1      -4.386   2.104   1.626  1.00  0.00    +0.000 HD
ENDBRANCH  15  19
BRANCH  16  21
ATOM     21  O   UNL     1      -3.974  -1.371   0.412  1.00  0.00    +0.000 OA
ATOM     22  C   UNL     1      -5.026  -1.470  -0.546  1.00  0.00    +0.000 C 
ENDBRANCH  16  21
BRANCH  17  23
ATOM     23  O   UNL     1      -1.821  -1.950  -1.129  1.00  0.00    +0.000 OA
ATOM     24  C   UNL     1      -0.480  -2.365  -1.368  1.00  0.00    +0.000 C 
ENDBRANCH  17  23
ENDBRANCH   2  13
TORSDOF 7
