REMARK  Name = SANCDB_00905_minRM1.pdb
AUTHORGENERATED BY OPEN BABEL 2.3.2
REMARK  17 active torsions:
REMARK  status: ('A' for Active; 'I' for Inactive)
REMARK    1  A    between atoms: C_1  and  C_2
REMARK    2  A    between atoms: C_5  and  O_27
REMARK    3  A    between atoms: C_14  and  C_26
REMARK    4  A    between atoms: C_15  and  O_25
REMARK    5  A    between atoms: C_18  and  C_19
REMARK    6  A    between atoms: O_27  and  C_28
REMARK    7  A    between atoms: C_29  and  O_38
REMARK    8  A    between atoms: C_30  and  O_37
REMARK    9  A    between atoms: C_31  and  O_36
REMARK   10  A    between atoms: C_32  and  C_34
REMARK   11  A    between atoms: C_34  and  O_35
REMARK   12  A    between atoms: O_38  and  C_39
REMARK   13  A    between atoms: C_40  and  O_49
REMARK   14  A    between atoms: C_41  and  O_48
REMARK   15  A    between atoms: C_42  and  O_47
REMARK   16  A    between atoms: C_43  and  C_45
REMARK   17  A    between atoms: C_45  and  O_46
REMARK                            x       y       z     vdW  Elec       q    Type
REMARK                         _______ _______ _______ _____ _____    ______ ____
ROOT
ATOM      1  C   UNL     1      -3.393   0.042   1.348  1.00  0.00    +0.000 C 
ATOM      2  C   UNL     1      -4.254  -1.217   1.079  1.00  0.00    +0.000 C 
ATOM      3  C   UNL     1      -5.184  -1.522   2.276  1.00  0.00    +0.000 C 
ATOM      4  C   UNL     1      -5.176  -0.424   3.353  1.00  0.00    +0.000 C 
ATOM      5  C   UNL     1      -3.753   0.059   3.712  1.00  0.00    +0.000 C 
ATOM      6  O   UNL     1      -2.811  -0.081   2.639  1.00  0.00    +0.000 OA
ENDROOT
BRANCH   4   7
ATOM      7  O   UNL     1      -5.898   0.719   2.859  1.00  0.00    +0.000 OA
ATOM      8  H   UNL     1      -6.798   0.430   2.620  1.00  0.00    +0.000 HD
ENDBRANCH   4   7
BRANCH   3   9
ATOM      9  O   UNL     1      -4.879  -2.808   2.831  1.00  0.00    +0.000 OA
ATOM     10  H   UNL     1      -4.100  -2.699   3.423  1.00  0.00    +0.000 HD
ENDBRANCH   3   9
BRANCH   1  11
ATOM     11  O   UNL     1      -2.344   0.076   0.374  1.00  0.00    +0.000 OA
BRANCH  11  16
ATOM     12  C   UNL     1       0.748  -1.066  -0.144  1.00  0.00    +0.000 C 
ATOM     13  C   UNL     1       1.021   0.440   0.106  1.00  0.00    +0.000 C 
ATOM     14  C   UNL     1       0.297   0.883   1.423  1.00  0.00    +0.000 C 
ATOM     15  C   UNL     1      -0.876   1.848   1.226  1.00  0.00    +0.000 C 
ATOM     16  C   UNL     1      -1.809   1.380   0.114  1.00  0.00    +0.000 C 
ATOM     17  C   UNL     1      -1.051   1.315  -1.226  1.00  0.00    +0.000 C 
ATOM     18  C   UNL     1       0.461   1.199  -1.099  1.00  0.00    +0.000 C 
ATOM     19  C   UNL     1       1.246   1.768  -2.030  1.00  0.00    +0.000 C 
ATOM     20  C   UNL     1       2.739   1.709  -2.041  1.00  0.00    +0.000 C 
ATOM     21  C   UNL     1       3.345   0.683  -1.061  1.00  0.00    +0.000 C 
ATOM     22  C   UNL     1       2.575   0.711   0.283  1.00  0.00    +0.000 C 
ATOM     23  C   UNL     1       3.231  -0.229   1.314  1.00  0.00    +0.000 C 
ATOM     24  C   UNL     1       4.714   0.071   1.501  1.00  0.00    +0.000 C 
ATOM     25  C   UNL     1       5.528  -0.027   0.181  1.00  0.00    +0.000 C 
ATOM     26  C   UNL     1       4.884   0.873  -0.912  1.00  0.00    +0.000 C 
ATOM     27  C   UNL     1       5.331   2.292  -0.514  1.00  0.00    +0.000 C 
ATOM     28  C   UNL     1       6.664   2.144   0.228  1.00  0.00    +0.000 C 
ATOM     29  C   UNL     1       6.932   0.634   0.418  1.00  0.00    +0.000 C 
ATOM     30  C   UNL     1       5.616  -1.506  -0.245  1.00  0.00    +0.000 C 
BRANCH  29  31
ATOM     31  C   UNL     1       8.093   0.131  -0.407  1.00  0.00    +0.000 C 
ATOM     32  C   UNL     1       8.541   0.555  -1.589  1.00  0.00    +0.000 C 
ATOM     33  C   UNL     1       9.713  -0.248  -1.926  1.00  0.00    +0.000 C 
ATOM     34  O   UNL     1      10.371  -0.127  -2.942  1.00  0.00    +0.000 OA
ATOM     35  O   UNL     1       9.952  -1.131  -0.921  1.00  0.00    +0.000 OA
ATOM     36  C   UNL     1       8.964  -0.961   0.093  1.00  0.00    +0.000 C 
ENDBRANCH  29  31
BRANCH  26  37
ATOM     37  O   UNL     1       5.492   0.568  -2.175  1.00  0.00    +0.000 OA
ATOM     38  H   UNL     1       5.202   1.222  -2.832  1.00  0.00    +0.000 HD
ENDBRANCH  26  37
ENDBRANCH  11  16
ENDBRANCH   1  11
BRANCH   5  39
ATOM     39  C   UNL     1      -3.167  -0.690   4.918  1.00  0.00    +0.000 C 
BRANCH  39  40
ATOM     40  O   UNL     1      -3.155  -2.101   4.689  1.00  0.00    +0.000 OA
ATOM     41  H   UNL     1      -2.622  -2.490   5.408  1.00  0.00    +0.000 HD
ENDBRANCH  39  40
ENDBRANCH   5  39
BRANCH   2  42
ATOM     42  O   UNL     1      -5.096  -1.078  -0.085  1.00  0.00    +0.000 OA
BRANCH  42  43
ATOM     43  C   UNL     1      -4.418  -1.163  -1.331  1.00  0.00    +0.000 C 
ATOM     44  C   UNL     1      -5.028  -2.287  -2.202  1.00  0.00    +0.000 C 
ATOM     45  C   UNL     1      -6.404  -1.894  -2.764  1.00  0.00    +0.000 C 
ATOM     46  C   UNL     1      -6.326  -0.523  -3.450  1.00  0.00    +0.000 C 
ATOM     47  C   UNL     1      -5.657   0.539  -2.563  1.00  0.00    +0.000 C 
ATOM     48  O   UNL     1      -4.403   0.101  -1.998  1.00  0.00    +0.000 OA
BRANCH  46  49
ATOM     49  O   UNL     1      -5.586  -0.639  -4.678  1.00  0.00    +0.000 OA
ATOM     50  H   UNL     1      -4.781  -1.163  -4.481  1.00  0.00    +0.000 HD
ENDBRANCH  46  49
BRANCH  45  51
ATOM     51  O   UNL     1      -7.417  -1.886  -1.759  1.00  0.00    +0.000 OA
ATOM     52  H   UNL     1      -7.471  -2.784  -1.385  1.00  0.00    +0.000 HD
ENDBRANCH  45  51
BRANCH  44  53
ATOM     53  O   UNL     1      -4.158  -2.583  -3.314  1.00  0.00    +0.000 OA
ATOM     54  H   UNL     1      -3.298  -2.861  -2.948  1.00  0.00    +0.000 HD
ENDBRANCH  44  53
BRANCH  47  55
ATOM     55  C   UNL     1      -6.587   1.109  -1.482  1.00  0.00    +0.000 C 
BRANCH  55  56
ATOM     56  O   UNL     1      -5.914   2.162  -0.784  1.00  0.00    +0.000 OA
ATOM     57  H   UNL     1      -5.002   1.840  -0.659  1.00  0.00    +0.000 HD
ENDBRANCH  55  56
ENDBRANCH  47  55
ENDBRANCH  42  43
ENDBRANCH   2  42
TORSDOF 15
