REMARK  Name = /srv/my_project/app/compsite/backup/Dave/CORINA_stuff/newPDBs/SANC00605.pdb
AUTHORGENERATED BY OPEN BABEL 2.3.2
REMARK  8 active torsions:
REMARK  status: ('A' for Active; 'I' for Inactive)
REMARK    1  A    between atoms: C_1  and  O_2
REMARK    2  A    between atoms: O_2  and  C_3
REMARK    3  A    between atoms: C_3  and  C_5
REMARK    4  A    between atoms: C_7  and  O_8
REMARK    5  A    between atoms: O_8  and  C_9
REMARK    6  A    between atoms: C_10  and  O_11
REMARK    7  A    between atoms: C_12  and  O_13
REMARK    8  A    between atoms: O_13  and  C_14
REMARK                            x       y       z     vdW  Elec       q    Type
REMARK                         _______ _______ _______ _____ _____    ______ ____
ROOT
ATOM      1  C   UNL     1       0.476  -0.577  -0.086  1.00  0.00    +0.000 A 
ATOM      2  C   UNL     1      -0.786  -1.196  -0.107  1.00  0.00    +0.000 A 
ATOM      3  C   UNL     1      -1.951  -0.430  -0.045  1.00  0.00    +0.000 A 
ATOM      4  C   UNL     1      -1.830   0.962   0.038  1.00  0.00    +0.000 A 
ATOM      5  C   UNL     1      -0.579   1.597   0.060  1.00  0.00    +0.000 A 
ATOM      6  C   UNL     1       0.577   0.821  -0.003  1.00  0.00    +0.000 A 
ENDROOT
BRANCH   1   7
ATOM      7  C   UNL     1       1.678  -1.455  -0.155  1.00  0.00    +0.000 C 
ATOM      8  O   UNL     1       1.619  -2.672  -0.228  1.00  0.00    +0.000 OA
BRANCH   7  10
ATOM      9  C   UNL     1       4.012  -1.496  -0.189  1.00  0.00    +0.000 C 
ATOM     10  O   UNL     1       2.816  -0.717  -0.126  1.00  0.00    +0.000 OA
ENDBRANCH   7  10
ENDBRANCH   1   7
BRANCH   3  11
ATOM     11  O   UNL     1      -3.225  -0.932  -0.058  1.00  0.00    +0.000 OA
ATOM     12  C   UNL     1      -3.376  -2.342  -0.142  1.00  0.00    +0.000 C 
ENDBRANCH   3  11
BRANCH   4  13
ATOM     13  O   UNL     1      -2.963   1.738   0.100  1.00  0.00    +0.000 OA
ATOM     14  H   UNL     1      -2.645   2.659   0.152  1.00  0.00    +0.000 HD
ENDBRANCH   4  13
BRANCH   5  15
ATOM     15  O   UNL     1      -0.627   2.966   0.143  1.00  0.00    +0.000 OA
ATOM     16  C   UNL     1       0.619   3.655   0.168  1.00  0.00    +0.000 C 
ENDBRANCH   5  15
TORSDOF 5
