REMARK  Name = /srv/my_project/app/compsite/backup/Dave/CORINA_stuff/newPDBs/SANC00581.pdb
AUTHORGENERATED BY OPEN BABEL 2.3.2
REMARK  21 active torsions:
REMARK  status: ('A' for Active; 'I' for Inactive)
REMARK    1  A    between atoms: C_1  and  C_2
REMARK    2  A    between atoms: C_2  and  O_4
REMARK    3  A    between atoms: O_4  and  C_5
REMARK    4  A    between atoms: C_6  and  O_7
REMARK    5  A    between atoms: C_10  and  O_11
REMARK    6  A    between atoms: O_11  and  C_12
REMARK    7  A    between atoms: C_12  and  C_13
REMARK    8  A    between atoms: C_18  and  O_19
REMARK    9  A    between atoms: O_19  and  C_20
REMARK   10  A    between atoms: C_20  and  C_22
REMARK   11  A    between atoms: C_23  and  C_24
REMARK   12  A    between atoms: N_26  and  C_27
REMARK   13  A    between atoms: C_30  and  C_31
REMARK   14  A    between atoms: C_34  and  O_35
REMARK   15  A    between atoms: C_37  and  C_38
REMARK   16  A    between atoms: C_41  and  C_42
REMARK   17  A    between atoms: C_42  and  C_43
REMARK   18  A    between atoms: C_42  and  C_44
REMARK   19  A    between atoms: C_45  and  O_46
REMARK   20  A    between atoms: O_46  and  C_47
REMARK   21  A    between atoms: C_47  and  C_48
REMARK                            x       y       z     vdW  Elec       q    Type
REMARK                         _______ _______ _______ _____ _____    ______ ____
ROOT
ATOM      1  C   UNL     1      -1.303  -1.336   0.153  1.00  0.00    +0.000 C 
ATOM      2  C   UNL     1      -1.133  -2.702  -0.561  1.00  0.00    +0.000 C 
ATOM      3  C   UNL     1      -0.039  -2.758  -1.668  1.00  0.00    +0.000 C 
ATOM      4  C   UNL     1       1.439  -2.798  -1.125  1.00  0.00    +0.000 C 
ATOM      5  C   UNL     1       1.957  -1.378  -0.735  1.00  0.00    +0.000 C 
ATOM      6  C   UNL     1       2.657  -1.342   0.642  1.00  0.00    +0.000 C 
ATOM      7  C   UNL     1       1.679  -1.261   1.853  1.00  0.00    +0.000 C 
ATOM      8  C   UNL     1       2.350  -1.767   3.134  1.00  0.00    +0.000 C 
ATOM      9  C   UNL     1       1.087   0.089   2.109  1.00  0.00    +0.000 C 
ATOM     10  C   UNL     1      -0.237   0.037   1.993  1.00  0.00    +0.000 C 
ATOM     11  C   UNL     1      -0.666  -1.321   1.569  1.00  0.00    +0.000 C 
ATOM     12  O   UNL     1       0.537  -2.110   1.604  1.00  0.00    +0.000 OA
ATOM     13  C   UNL     1       2.442  -3.415  -2.115  1.00  0.00    +0.000 C 
ATOM     14  C   UNL     1       3.857  -3.623  -1.639  1.00  0.00    +0.000 C 
ATOM     15  C   UNL     1       2.089  -3.792  -3.356  1.00  0.00    +0.000 C 
ATOM     16  C   UNL     1       0.676  -3.764  -3.839  1.00  0.00    +0.000 C 
ATOM     17  C   UNL     1      -0.327  -3.933  -2.678  1.00  0.00    +0.000 C 
ENDROOT
BRANCH  17  18
ATOM     18  C   UNL     1      -0.344  -5.368  -2.027  1.00  0.00    +0.000 C 
ATOM     19  C   UNL     1      -1.753  -5.765  -1.552  1.00  0.00    +0.000 C 
ATOM     20  C   UNL     1       0.133  -6.497  -2.955  1.00  0.00    +0.000 C 
ENDBRANCH  17  18
BRANCH  11  21
ATOM     21  O   UNL     1      -1.544  -1.874   2.532  1.00  0.00    +0.000 OA
ATOM     22  H   UNL     1      -1.193  -1.595   3.393  1.00  0.00    +0.000 HD
ENDBRANCH  11  21
BRANCH   1  23
ATOM     23  C   UNL     1      -2.798  -0.951   0.192  1.00  0.00    +0.000 C 
BRANCH  23  24
ATOM     24  O   UNL     1      -2.952   0.424   0.555  1.00  0.00    +0.000 OA
BRANCH  24  29
ATOM     25  C   UNL     1      -5.826   2.781   0.841  1.00  0.00    +0.000 C 
ATOM     26  C   UNL     1      -5.949   2.812  -0.702  1.00  0.00    +0.000 C 
ATOM     27  C   UNL     1      -5.136   1.670  -1.329  1.00  0.00    +0.000 C 
ATOM     28  O   UNL     1      -5.094   0.545  -0.461  1.00  0.00    +0.000 OA
ATOM     29  C   UNL     1      -4.326   0.782   0.731  1.00  0.00    +0.000 C 
ATOM     30  C   UNL     1      -4.454   2.238   1.258  1.00  0.00    +0.000 C 
BRANCH  26  31
ATOM     31  O   UNL     1      -5.529   4.065  -1.253  1.00  0.00    +0.000 OA
ATOM     32  H   UNL     1      -5.773   4.066  -2.195  1.00  0.00    +0.000 HD
ENDBRANCH  26  31
BRANCH  25  33
ATOM     33  O   UNL     1      -6.022   4.083   1.432  1.00  0.00    +0.000 OA
BRANCH  33  35
ATOM     34  C   UNL     1      -7.337   5.953   1.940  1.00  0.00    +0.000 C 
ATOM     35  C   UNL     1      -7.290   4.567   1.375  1.00  0.00    +0.000 C 
ATOM     36  O   UNL     1      -8.261   3.961   0.943  1.00  0.00    +0.000 OA
ENDBRANCH  33  35
ENDBRANCH  25  33
BRANCH  30  37
ATOM     37  O   UNL     1      -3.430   3.085   0.678  1.00  0.00    +0.000 OA
BRANCH  37  38
ATOM     38  C   UNL     1      -2.364   3.378   1.464  1.00  0.00    +0.000 C 
ATOM     39  C   UNL     1      -1.375   4.198   0.695  1.00  0.00    +0.000 C 
ATOM     40  O   UNL     1      -2.215   3.032   2.628  1.00  0.00    +0.000 OA
ENDBRANCH  37  38
ENDBRANCH  30  37
ENDBRANCH  24  29
ENDBRANCH  23  24
ENDBRANCH   1  23
BRANCH   6  41
ATOM     41  O   UNL     1       3.539  -0.192   0.644  1.00  0.00    +0.000 OA
BRANCH  41  42
ATOM     42  C   UNL     1       4.791  -0.370   1.120  1.00  0.00    +0.000 C 
ATOM     43  O   UNL     1       5.257  -1.411   1.556  1.00  0.00    +0.000 OA
BRANCH  42  44
ATOM     44  C   UNL     1       5.580   0.875   1.072  1.00  0.00    +0.000 C 
ATOM     45  C   UNL     1       5.113   2.050   0.624  1.00  0.00    +0.000 C 
BRANCH  45  46
ATOM     46  C   UNL     1       5.840   3.268   0.571  1.00  0.00    +0.000 A 
ATOM     47  C   UNL     1       7.143   3.523   0.933  1.00  0.00    +0.000 A 
ATOM     48  N   UNL     1       7.316   4.854   0.674  1.00  0.00    +0.000 N 
ATOM     49  C   UNL     1       8.518   5.620   0.880  1.00  0.00    +0.000 C 
ATOM     50  C   UNL     1       6.141   5.341   0.179  1.00  0.00    +0.000 A 
ATOM     51  N   UNL     1       5.226   4.400   0.105  1.00  0.00    +0.000 NA
ENDBRANCH  45  46
ENDBRANCH  42  44
ENDBRANCH  41  42
ENDBRANCH   6  41
TORSDOF 14
