REMARK  Name = SANCDB_01091_minRM1.pdb
AUTHORGENERATED BY OPEN BABEL 2.3.2
REMARK  15 active torsions:
REMARK  status: ('A' for Active; 'I' for Inactive)
REMARK    1  A    between atoms: C_1  and  O_2
REMARK    2  A    between atoms: O_2  and  C_3
REMARK    3  A    between atoms: C_5  and  C_13
REMARK    4  A    between atoms: C_7  and  O_11
REMARK    5  A    between atoms: C_8  and  O_9
REMARK    6  A    between atoms: O_9  and  C_10
REMARK    7  A    between atoms: O_11  and  C_12
REMARK    8  A    between atoms: C_14  and  O_30
REMARK    9  A    between atoms: C_18  and  O_29
REMARK   10  A    between atoms: C_19  and  O_27
REMARK   11  A    between atoms: C_20  and  O_26
REMARK   12  A    between atoms: C_21  and  O_24
REMARK   13  A    between atoms: O_24  and  C_25
REMARK   14  A    between atoms: O_27  and  C_28
REMARK   15  A    between atoms: O_30  and  C_31
REMARK                            x       y       z     vdW  Elec       q    Type
REMARK                         _______ _______ _______ _____ _____    ______ ____
ROOT
ATOM      1  C   UNL     1      -0.147  -0.586  -0.170  1.00  0.00    +0.000 A 
ATOM      2  C   UNL     1       0.405  -1.756  -0.544  1.00  0.00    +0.000 A 
ATOM      3  C   UNL     1       1.891  -1.851  -0.525  1.00  0.00    +0.000 A 
ATOM      4  O   UNL     1       2.499  -2.850  -0.903  1.00  0.00    +0.000 OA
ATOM      5  C   UNL     1       2.650  -0.691  -0.028  1.00  0.00    +0.000 A 
ATOM      6  C   UNL     1       4.056  -0.718   0.055  1.00  0.00    +0.000 A 
ATOM      7  C   UNL     1       4.739   0.399   0.547  1.00  0.00    +0.000 A 
ATOM      8  C   UNL     1       3.999   1.533   0.950  1.00  0.00    +0.000 A 
ATOM      9  C   UNL     1       2.604   1.575   0.857  1.00  0.00    +0.000 A 
ATOM     10  C   UNL     1       1.939   0.440   0.365  1.00  0.00    +0.000 A 
ATOM     11  O   UNL     1       0.568   0.506   0.286  1.00  0.00    +0.000 OA
ENDROOT
BRANCH   1  14
ATOM     12  C   UNL     1      -3.780  -0.404  -1.267  1.00  0.00    +0.000 A 
ATOM     13  C   UNL     1      -2.404  -0.642  -1.283  1.00  0.00    +0.000 A 
ATOM     14  C   UNL     1      -1.609  -0.348  -0.163  1.00  0.00    +0.000 A 
ATOM     15  C   UNL     1      -2.209   0.220   0.975  1.00  0.00    +0.000 A 
ATOM     16  C   UNL     1      -3.581   0.479   1.009  1.00  0.00    +0.000 A 
ATOM     17  C   UNL     1      -4.355   0.176  -0.123  1.00  0.00    +0.000 A 
BRANCH  12  19
ATOM     18  C   UNL     1      -4.135  -1.496  -3.354  1.00  0.00    +0.000 C 
ATOM     19  O   UNL     1      -4.631  -0.671  -2.309  1.00  0.00    +0.000 OA
ENDBRANCH  12  19
BRANCH  17  20
ATOM     20  O   UNL     1      -5.717   0.382  -0.085  1.00  0.00    +0.000 OA
ATOM     21  C   UNL     1      -6.020   1.690  -0.567  1.00  0.00    +0.000 C 
ENDBRANCH  17  20
BRANCH  16  22
ATOM     22  O   UNL     1      -4.251   1.025   2.074  1.00  0.00    +0.000 OA
ATOM     23  C   UNL     1      -3.499   1.313   3.244  1.00  0.00    +0.000 C 
ENDBRANCH  16  22
ENDBRANCH   1  14
BRANCH   9  24
ATOM     24  O   UNL     1       1.778   2.607   1.222  1.00  0.00    +0.000 OA
ATOM     25  C   UNL     1       2.351   3.890   1.430  1.00  0.00    +0.000 C 
ENDBRANCH   9  24
BRANCH   8  26
ATOM     26  O   UNL     1       4.713   2.593   1.457  1.00  0.00    +0.000 OA
ATOM     27  H   UNL     1       5.651   2.312   1.428  1.00  0.00    +0.000 HD
ENDBRANCH   8  26
BRANCH   7  28
ATOM     28  O   UNL     1       6.094   0.565   0.716  1.00  0.00    +0.000 OA
ATOM     29  C   UNL     1       6.967  -0.474   0.291  1.00  0.00    +0.000 C 
ENDBRANCH   7  28
BRANCH   6  30
ATOM     30  O   UNL     1       4.755  -1.832  -0.334  1.00  0.00    +0.000 OA
ATOM     31  H   UNL     1       4.125  -2.511  -0.668  1.00  0.00    +0.000 HD
ENDBRANCH   6  30
BRANCH   2  32
ATOM     32  O   UNL     1      -0.365  -2.822  -0.983  1.00  0.00    +0.000 OA
ATOM     33  C   UNL     1      -0.090  -4.041  -0.296  1.00  0.00    +0.000 C 
ENDBRANCH   2  32
TORSDOF 9
