REMARK  Name = SANCDB_00910_minRM1.pdb
AUTHORGENERATED BY OPEN BABEL 2.3.2
REMARK  6 active torsions:
REMARK  status: ('A' for Active; 'I' for Inactive)
REMARK    1  A    between atoms: C_1  and  C_2
REMARK    2  A    between atoms: C_2  and  C_10
REMARK    3  A    between atoms: C_3  and  C_4
REMARK    4  A    between atoms: C_4  and  C_5
REMARK    5  A    between atoms: C_5  and  C_6
REMARK    6  A    between atoms: C_6  and  C_8
REMARK                            x       y       z     vdW  Elec       q    Type
REMARK                         _______ _______ _______ _____ _____    ______ ____
ROOT
ATOM      1  C   UNL     1      -0.016  -0.274  -0.779  1.00  0.00    +0.000 C 
ENDROOT
BRANCH   1   4
ATOM      2  C   UNL     1       3.682   0.789   0.000  1.00  0.00    +0.000 C 
ATOM      3  C   UNL     1       2.179   0.851  -0.075  1.00  0.00    +0.000 C 
ATOM      4  C   UNL     1       1.476  -0.173  -0.597  1.00  0.00    +0.000 C 
ATOM      5  C   UNL     1       1.585   2.116   0.479  1.00  0.00    +0.000 C 
ENDBRANCH   1   4
BRANCH   1   6
ATOM      6  C   UNL     1      -0.639  -1.240   0.237  1.00  0.00    +0.000 C 
BRANCH   6   7
ATOM      7  C   UNL     1      -2.136  -1.395   0.052  1.00  0.00    +0.000 C 
ATOM      8  C   UNL     1      -2.629  -2.478  -0.575  1.00  0.00    +0.000 C 
BRANCH   7   9
ATOM      9  C   UNL     1      -3.055  -0.393   0.572  1.00  0.00    +0.000 C 
ATOM     10  C   UNL     1      -2.734   0.709   1.262  1.00  0.00    +0.000 C 
ENDBRANCH   7   9
ENDBRANCH   6   7
ENDBRANCH   1   6
TORSDOF 4
