REMARK  Name = /srv/my_project/app/compsite/backup/Dave/CORINA_stuff/newPDBs/SANC00447.pdb
AUTHORGENERATED BY OPEN BABEL 2.3.2
REMARK  16 active torsions:
REMARK  status: ('A' for Active; 'I' for Inactive)
REMARK    1  A    between atoms: C_1  and  C_2
REMARK    2  A    between atoms: C_13  and  O_20
REMARK    3  A    between atoms: C_16  and  C_18
REMARK    4  A    between atoms: C_16  and  C_19
REMARK    5  A    between atoms: C_32  and  C_82
REMARK    6  A    between atoms: C_33  and  O_80
REMARK    7  A    between atoms: C_40  and  C_76
REMARK    8  A    between atoms: C_51  and  O_75
REMARK    9  A    between atoms: C_53  and  C_74
REMARK   10  A    between atoms: C_58  and  O_73
REMARK   11  A    between atoms: C_59  and  C_72
REMARK   12  A    between atoms: C_63  and  O_71
REMARK   13  A    between atoms: C_66  and  C_68
REMARK   14  A    between atoms: C_66  and  C_69
REMARK   15  A    between atoms: C_69  and  O_70
REMARK   16  A    between atoms: O_80  and  C_81
REMARK                            x       y       z     vdW  Elec       q    Type
REMARK                         _______ _______ _______ _____ _____    ______ ____
ROOT
ATOM      1  C   UNL     1     -11.814  -2.551   1.060  1.00  0.00    +0.000 C 
ATOM      2  C   UNL     1     -10.753  -1.447   1.149  1.00  0.00    +0.000 C 
ATOM      3  C   UNL     1      -9.568  -1.777   0.211  1.00  0.00    +0.000 C 
ATOM      4  C   UNL     1      -9.924  -1.851  -1.282  1.00  0.00    +0.000 C 
ATOM      5  C   UNL     1      -8.687  -1.346  -1.943  1.00  0.00    +0.000 C 
ATOM      6  C   UNL     1      -7.868  -0.721  -1.085  1.00  0.00    +0.000 C 
ATOM      7  C   UNL     1      -8.435  -0.727   0.321  1.00  0.00    +0.000 C 
ATOM      8  C   UNL     1      -8.972   0.627   0.802  1.00  0.00    +0.000 C 
ATOM      9  O   UNL     1     -10.298   0.857   0.334  1.00  0.00    +0.000 OA
ATOM     10  C   UNL     1     -11.291  -0.005   0.916  1.00  0.00    +0.000 C 
ATOM     11  C   UNL     1     -11.875   0.692   2.167  1.00  0.00    +0.000 C 
ATOM     12  C   UNL     1     -12.765   1.758   1.549  1.00  0.00    +0.000 C 
ATOM     13  C   UNL     1     -13.224   1.129   0.226  1.00  0.00    +0.000 C 
ATOM     14  O   UNL     1     -12.412  -0.043   0.009  1.00  0.00    +0.000 OA
ATOM     15  C   UNL     1     -14.685   0.675   0.276  1.00  0.00    +0.000 C 
ATOM     16  C   UNL     1     -13.032   2.084  -0.954  1.00  0.00    +0.000 C 
ATOM     17  C   UNL     1      -7.329  -1.173   1.277  1.00  0.00    +0.000 C 
ATOM     18  O   UNL     1      -7.553  -1.889   2.254  1.00  0.00    +0.000 OA
ATOM     19  C   UNL     1      -5.958  -0.551   1.079  1.00  0.00    +0.000 C 
ATOM     20  C   UNL     1      -5.472  -0.678  -0.377  1.00  0.00    +0.000 C 
ATOM     21  C   UNL     1      -6.524  -0.079  -1.353  1.00  0.00    +0.000 C 
ATOM     22  C   UNL     1      -6.064  -0.224  -2.812  1.00  0.00    +0.000 C 
ATOM     23  C   UNL     1      -4.673   0.349  -3.049  1.00  0.00    +0.000 C 
ATOM     24  C   UNL     1      -3.644  -0.280  -2.103  1.00  0.00    +0.000 C 
ATOM     25  C   UNL     1      -4.018  -0.089  -0.598  1.00  0.00    +0.000 C 
ATOM     26  C   UNL     1      -2.954  -0.879   0.248  1.00  0.00    +0.000 C 
ATOM     27  C   UNL     1      -1.525  -0.527  -0.124  1.00  0.00    +0.000 A 
ATOM     28  N   UNL     1      -0.577  -0.693   0.839  1.00  0.00    +0.000 NA
ATOM     29  C   UNL     1       0.704  -0.418   0.492  1.00  0.00    +0.000 A 
ATOM     30  C   UNL     1       1.033   0.045  -0.785  1.00  0.00    +0.000 A 
ATOM     31  C   UNL     1       2.459   0.336  -1.190  1.00  0.00    +0.000 C 
ATOM     32  C   UNL     1       3.420   0.551   0.012  1.00  0.00    +0.000 C 
ATOM     33  C   UNL     1       3.163  -0.638   0.987  1.00  0.00    +0.000 C 
ATOM     34  C   UNL     1       1.745  -0.594   1.569  1.00  0.00    +0.000 C 
ATOM     35  C   UNL     1       4.252  -0.889   2.048  1.00  0.00    +0.000 C 
ATOM     36  C   UNL     1       5.376   0.139   2.135  1.00  0.00    +0.000 C 
ATOM     37  C   UNL     1       5.856   0.734   0.797  1.00  0.00    +0.000 C 
ATOM     38  C   UNL     1       4.915   0.432  -0.404  1.00  0.00    +0.000 C 
ATOM     39  C   UNL     1       5.352   1.248  -1.644  1.00  0.00    +0.000 C 
ATOM     40  C   UNL     1       6.826   0.951  -2.018  1.00  0.00    +0.000 C 
ATOM     41  C   UNL     1       7.823   1.153  -0.836  1.00  0.00    +0.000 C 
ATOM     42  C   UNL     1       7.243   0.372   0.335  1.00  0.00    +0.000 C 
ATOM     43  C   UNL     1       7.999  -0.680   0.668  1.00  0.00    +0.000 C 
ATOM     44  C   UNL     1       9.180  -0.839  -0.226  1.00  0.00    +0.000 C 
ATOM     45  C   UNL     1       9.231   0.459  -1.081  1.00  0.00    +0.000 C 
ATOM     46  C   UNL     1      10.497   1.131  -0.529  1.00  0.00    +0.000 C 
ATOM     47  C   UNL     1      11.321  -0.041   0.014  1.00  0.00    +0.000 C 
ATOM     48  O   UNL     1      10.352  -0.929   0.586  1.00  0.00    +0.000 OA
ATOM     49  C   UNL     1      12.265  -0.810  -0.932  1.00  0.00    +0.000 C 
ATOM     50  C   UNL     1      13.149  -1.521   0.073  1.00  0.00    +0.000 C 
ATOM     51  C   UNL     1      13.315  -0.466   1.173  1.00  0.00    +0.000 C 
ATOM     52  O   UNL     1      12.191   0.438   1.058  1.00  0.00    +0.000 OA
ATOM     53  C   UNL     1      13.282  -1.108   2.560  1.00  0.00    +0.000 C 
ATOM     54  C   UNL     1      11.260   2.034  -1.494  1.00  0.00    +0.000 C 
ATOM     55  C   UNL     1       7.958   2.656  -0.510  1.00  0.00    +0.000 C 
ATOM     56  C   UNL     1       3.110   1.943   0.620  1.00  0.00    +0.000 C 
ATOM     57  N   UNL     1       0.087   0.228  -1.738  1.00  0.00    +0.000 NA
ATOM     58  C   UNL     1      -1.194  -0.068  -1.398  1.00  0.00    +0.000 A 
ATOM     59  C   UNL     1      -2.236   0.236  -2.436  1.00  0.00    +0.000 C 
ATOM     60  C   UNL     1      -3.970   1.407  -0.181  1.00  0.00    +0.000 C 
ENDROOT
BRANCH  11  61
ATOM     61  O   UNL     1     -12.663  -0.149   3.007  1.00  0.00    +0.000 OA
ATOM     62  H   UNL     1     -13.333  -0.580   2.450  1.00  0.00    +0.000 HD
ENDBRANCH  11  61
BRANCH  49  63
ATOM     63  O   UNL     1      11.649  -1.735  -1.810  1.00  0.00    +0.000 OA
ATOM     64  H   UNL     1      12.345  -2.187  -2.314  1.00  0.00    +0.000 HD
ENDBRANCH  49  63
BRANCH  45  65
ATOM     65  O   UNL     1       9.426   0.140  -2.463  1.00  0.00    +0.000 OA
ATOM     66  H   UNL     1       8.996   0.836  -3.003  1.00  0.00    +0.000 HD
ENDBRANCH  45  65
BRANCH  40  67
ATOM     67  O   UNL     1       7.233   1.747  -3.136  1.00  0.00    +0.000 OA
ATOM     68  H   UNL     1       6.731   2.582  -3.116  1.00  0.00    +0.000 HD
ENDBRANCH  40  67
BRANCH  26  69
ATOM     69  O   UNL     1      -3.177  -2.286   0.036  1.00  0.00    +0.000 OA
ATOM     70  C   UNL     1      -2.664  -3.106   1.080  1.00  0.00    +0.000 C 
ENDBRANCH  26  69
BRANCH  51  71
ATOM     71  C   UNL     1      14.597   0.375   0.997  1.00  0.00    +0.000 C 
BRANCH  71  72
ATOM     72  O   UNL     1      15.787  -0.397   1.107  1.00  0.00    +0.000 OA
ATOM     73  H   UNL     1      15.939  -0.842   0.257  1.00  0.00    +0.000 HD
ENDBRANCH  71  72
ENDBRANCH  51  71
TORSDOF 7
