REMARK  Name = /srv/my_project/app/compsite/backup/Dave/CORINA_stuff/newPDBs/SANC00492.pdb
AUTHORGENERATED BY OPEN BABEL 2.3.2
REMARK  9 active torsions:
REMARK  status: ('A' for Active; 'I' for Inactive)
REMARK    1  A    between atoms: C_1  and  C_2
REMARK    2  A    between atoms: C_2  and  C_22
REMARK    3  A    between atoms: C_3  and  C_4
REMARK    4  A    between atoms: C_4  and  C_5
REMARK    5  A    between atoms: C_6  and  O_21
REMARK    6  A    between atoms: C_8  and  O_20
REMARK    7  A    between atoms: C_9  and  C_12
REMARK    8  A    between atoms: C_10  and  O_11
REMARK    9  A    between atoms: C_12  and  C_14
REMARK                            x       y       z     vdW  Elec       q    Type
REMARK                         _______ _______ _______ _____ _____    ______ ____
ROOT
ATOM      1  C   UNL     1      -0.928  -0.663  -0.276  1.00  0.00    +0.000 A 
ATOM      2  C   UNL     1      -1.381  -1.349  -1.417  1.00  0.00    +0.000 A 
ATOM      3  C   UNL     1      -0.590  -1.478  -2.557  1.00  0.00    +0.000 A 
ATOM      4  C   UNL     1       0.686  -0.929  -2.566  1.00  0.00    +0.000 A 
ATOM      5  C   UNL     1       1.194  -0.272  -1.437  1.00  0.00    +0.000 A 
ATOM      6  C   UNL     1       0.367  -0.105  -0.312  1.00  0.00    +0.000 A 
ENDROOT
BRANCH   6   7
ATOM      7  O   UNL     1       0.848   0.640   0.733  1.00  0.00    +0.000 OA
ATOM      8  H   UNL     1       0.128   0.900   1.329  1.00  0.00    +0.000 HD
ENDBRANCH   6   7
BRANCH   5   9
ATOM      9  C   UNL     1       2.581   0.253  -1.501  1.00  0.00    +0.000 C 
ATOM     10  O   UNL     1       2.974   0.706  -2.579  1.00  0.00    +0.000 OA
BRANCH   9  11
ATOM     11  C   UNL     1       3.531   0.171  -0.364  1.00  0.00    +0.000 A 
ATOM     12  C   UNL     1       3.510  -0.900   0.538  1.00  0.00    +0.000 A 
ATOM     13  C   UNL     1       4.445  -0.957   1.574  1.00  0.00    +0.000 A 
ATOM     14  C   UNL     1       5.408   0.044   1.703  1.00  0.00    +0.000 A 
ATOM     15  C   UNL     1       5.444   1.102   0.795  1.00  0.00    +0.000 A 
ATOM     16  C   UNL     1       4.511   1.163  -0.242  1.00  0.00    +0.000 A 
ENDBRANCH   9  11
ENDBRANCH   5   9
BRANCH   4  17
ATOM     17  O   UNL     1       1.396  -1.064  -3.731  1.00  0.00    +0.000 OA
ATOM     18  H   UNL     1       2.148  -0.429  -3.693  1.00  0.00    +0.000 HD
ENDBRANCH   4  17
BRANCH   2  19
ATOM     19  O   UNL     1      -2.634  -1.898  -1.407  1.00  0.00    +0.000 OA
ATOM     20  H   UNL     1      -2.824  -2.269  -2.285  1.00  0.00    +0.000 HD
ENDBRANCH   2  19
BRANCH   1  21
ATOM     21  C   UNL     1      -1.841  -0.530   0.927  1.00  0.00    +0.000 C 
BRANCH  21  24
ATOM     22  C   UNL     1      -4.979  -0.252   0.800  1.00  0.00    +0.000 C 
ATOM     23  C   UNL     1      -3.988   0.879   0.851  1.00  0.00    +0.000 C 
ATOM     24  C   UNL     1      -2.647   0.744   0.898  1.00  0.00    +0.000 C 
ATOM     25  C   UNL     1      -4.620   2.247   0.827  1.00  0.00    +0.000 C 
ENDBRANCH  21  24
ENDBRANCH   1  21
TORSDOF 7
