REMARK  Name = /srv/my_project/app/compsite/backup/Dave/CORINA_stuff/newPDBs/SANC00305.pdb
AUTHORGENERATED BY OPEN BABEL 2.3.2
REMARK  4 active torsions:
REMARK  status: ('A' for Active; 'I' for Inactive)
REMARK    1  A    between atoms: C_8  and  C_9
REMARK    2  A    between atoms: C_16  and  C_17
REMARK    3  A    between atoms: C_21  and  O_23
REMARK    4  A    between atoms: C_24  and  C_26
REMARK                            x       y       z     vdW  Elec       q    Type
REMARK                         _______ _______ _______ _____ _____    ______ ____
ROOT
ATOM      1  C   UNL     1      -1.616  -0.333  -0.376  1.00  0.00    +0.000 C 
ATOM      2  C   UNL     1      -0.907  -0.733  -1.685  1.00  0.00    +0.000 C 
ATOM      3  C   UNL     1       0.404  -1.470  -1.417  1.00  0.00    +0.000 C 
ATOM      4  C   UNL     1       1.360  -0.702  -0.507  1.00  0.00    +0.000 C 
ATOM      5  C   UNL     1       2.173   0.361  -1.220  1.00  0.00    +0.000 C 
ATOM      6  C   UNL     1       3.406   0.435  -0.696  1.00  0.00    +0.000 C 
ATOM      7  C   UNL     1       3.565  -0.589   0.399  1.00  0.00    +0.000 C 
ATOM      8  C   UNL     1       4.962  -1.179   0.499  1.00  0.00    +0.000 C 
ATOM      9  C   UNL     1       2.524  -1.617  -0.050  1.00  0.00    +0.000 C 
ATOM     10  C   UNL     1       3.055   0.007   1.721  1.00  0.00    +0.000 C 
ATOM     11  O   UNL     1       3.750   0.063   2.736  1.00  0.00    +0.000 OA
ATOM     12  C   UNL     1       1.643   0.599   1.711  1.00  0.00    +0.000 C 
ATOM     13  C   UNL     1       0.655  -0.162   0.781  1.00  0.00    +0.000 C 
ATOM     14  C   UNL     1      -0.704   0.595   0.509  1.00  0.00    +0.000 C 
ATOM     15  C   UNL     1      -0.485   1.978  -0.156  1.00  0.00    +0.000 C 
ATOM     16  C   UNL     1      -1.418   0.835   1.863  1.00  0.00    +0.000 C 
ATOM     17  C   UNL     1      -2.822   1.356   1.673  1.00  0.00    +0.000 C 
ATOM     18  O   UNL     1      -3.254   2.310   2.324  1.00  0.00    +0.000 OA
ATOM     19  C   UNL     1      -3.726   0.576   0.727  1.00  0.00    +0.000 C 
ATOM     20  C   UNL     1      -3.031   0.273  -0.613  1.00  0.00    +0.000 C 
ATOM     21  C   UNL     1      -3.934  -0.647  -1.451  1.00  0.00    +0.000 C 
ENDROOT
BRANCH  19  22
ATOM     22  O   UNL     1      -4.920   1.317   0.484  1.00  0.00    +0.000 OA
ATOM     23  H   UNL     1      -5.050   1.892   1.267  1.00  0.00    +0.000 HD
ENDBRANCH  19  22
TORSDOF 1
