REMARK  Name = /srv/my_project/app/compsite/backup/Dave/CORINA_stuff/newPDBs/SANC00496.pdb
AUTHORGENERATED BY OPEN BABEL 2.3.2
REMARK  35 active torsions:
REMARK  status: ('A' for Active; 'I' for Inactive)
REMARK    1  A    between atoms: C_2  and  O_3
REMARK    2  A    between atoms: O_3  and  C_4
REMARK    3  A    between atoms: C_8  and  C_9
REMARK    4  A    between atoms: C_19  and  C_20
REMARK    5  A    between atoms: C_24  and  O_26
REMARK    6  A    between atoms: O_26  and  C_27
REMARK    7  A    between atoms: C_31  and  O_33
REMARK    8  A    between atoms: C_34  and  O_36
REMARK    9  A    between atoms: O_36  and  C_37
REMARK   10  A    between atoms: C_41  and  O_43
REMARK   11  A    between atoms: C_44  and  O_46
REMARK   12  A    between atoms: C_47  and  O_49
REMARK   13  A    between atoms: O_49  and  C_50
REMARK   14  A    between atoms: C_50  and  C_52
REMARK   15  A    between atoms: C_55  and  O_56
REMARK   16  A    between atoms: O_56  and  C_57
REMARK   17  A    between atoms: C_58  and  O_59
REMARK   18  A    between atoms: O_59  and  C_60
REMARK   19  A    between atoms: C_62  and  O_64
REMARK   20  A    between atoms: O_64  and  C_65
REMARK   21  A    between atoms: C_65  and  C_66
REMARK   22  A    between atoms: C_68  and  O_69
REMARK   23  A    between atoms: C_68  and  C_70
REMARK   24  A    between atoms: C_70  and  C_72
REMARK   25  A    between atoms: C_70  and  C_73
REMARK   26  A    between atoms: C_73  and  C_75
REMARK   27  A    between atoms: C_75  and  C_76
REMARK   28  A    between atoms: C_76  and  C_77
REMARK   29  A    between atoms: C_77  and  C_78
REMARK   30  A    between atoms: C_77  and  C_79
REMARK   31  A    between atoms: C_82  and  C_84
REMARK   32  A    between atoms: C_84  and  O_85
REMARK   33  A    between atoms: C_86  and  O_88
REMARK   34  A    between atoms: C_89  and  O_91
REMARK   35  A    between atoms: C_92  and  O_94
REMARK                            x       y       z     vdW  Elec       q    Type
REMARK                         _______ _______ _______ _____ _____    ______ ____
ROOT
ATOM      1  C   UNL     1      -9.071  -0.314   0.015  1.00  0.00    +0.000 C 
ATOM      2  C   UNL     1      -8.665   0.502  -1.219  1.00  0.00    +0.000 C 
ATOM      3  C   UNL     1      -7.198   0.343  -1.642  1.00  0.00    +0.000 C 
ATOM      4  C   UNL     1      -6.197   0.350  -0.460  1.00  0.00    +0.000 C 
ATOM      5  C   UNL     1      -6.311   1.690   0.308  1.00  0.00    +0.000 C 
ATOM      6  C   UNL     1      -6.566  -0.801   0.478  1.00  0.00    +0.000 C 
ATOM      7  C   UNL     1      -5.637  -1.472   1.185  1.00  0.00    +0.000 C 
ATOM      8  C   UNL     1      -4.159  -1.237   1.106  1.00  0.00    +0.000 C 
ATOM      9  C   UNL     1      -3.737  -0.060   0.207  1.00  0.00    +0.000 C 
ATOM     10  C   UNL     1      -4.726   0.122  -0.983  1.00  0.00    +0.000 C 
ATOM     11  C   UNL     1      -4.231   1.188  -1.991  1.00  0.00    +0.000 C 
ATOM     12  C   UNL     1      -2.762   0.999  -2.416  1.00  0.00    +0.000 C 
ATOM     13  C   UNL     1      -1.808   0.924  -1.205  1.00  0.00    +0.000 C 
ATOM     14  C   UNL     1      -1.816   2.285  -0.459  1.00  0.00    +0.000 C 
ATOM     15  C   UNL     1      -2.311  -0.250  -0.329  1.00  0.00    +0.000 C 
ATOM     16  C   UNL     1      -1.198  -0.422   0.691  1.00  0.00    +0.000 C 
ATOM     17  C   UNL     1       0.093  -0.259  -0.138  1.00  0.00    +0.000 C 
ATOM     18  C   UNL     1      -0.328   0.456  -1.490  1.00  0.00    +0.000 C 
ATOM     19  C   UNL     1      -7.997  -1.306   0.476  1.00  0.00    +0.000 C 
ENDROOT
BRANCH  18  20
ATOM     20  C   UNL     1       0.666   1.556  -1.960  1.00  0.00    +0.000 C 
ATOM     21  C   UNL     1       0.363   2.137  -3.342  1.00  0.00    +0.000 C 
BRANCH  20  22
ATOM     22  C   UNL     1       2.101   1.022  -1.997  1.00  0.00    +0.000 C 
ATOM     23  O   UNL     1       2.342  -0.128  -2.374  1.00  0.00    +0.000 OA
BRANCH  22  24
ATOM     24  C   UNL     1       3.182   2.008  -1.571  1.00  0.00    +0.000 C 
BRANCH  24  25
ATOM     25  C   UNL     1       4.595   1.439  -1.652  1.00  0.00    +0.000 C 
BRANCH  25  26
ATOM     26  C   UNL     1       5.649   2.386  -1.048  1.00  0.00    +0.000 C 
ATOM     27  C   UNL     1       7.004   1.683  -0.972  1.00  0.00    +0.000 C 
ATOM     28  C   UNL     1       5.786   3.686  -1.842  1.00  0.00    +0.000 C 
ENDBRANCH  25  26
ENDBRANCH  24  25
ENDBRANCH  22  24
ENDBRANCH  20  22
ENDBRANCH  18  20
BRANCH  18  29
ATOM     29  O   UNL     1      -0.386  -0.574  -2.505  1.00  0.00    +0.000 OA
ATOM     30  H   UNL     1       0.542  -0.825  -2.705  1.00  0.00    +0.000 HD
ENDBRANCH  18  29
BRANCH  17  31
ATOM     31  O   UNL     1       1.085   0.481   0.569  1.00  0.00    +0.000 OA
BRANCH  31  32
ATOM     32  C   UNL     1       1.635  -0.164   1.727  1.00  0.00    +0.000 C 
ATOM     33  O   UNL     1       1.926   0.890   2.650  1.00  0.00    +0.000 OA
ATOM     34  C   UNL     1       2.981   0.629   3.572  1.00  0.00    +0.000 C 
ATOM     35  C   UNL     1       3.101  -0.850   3.916  1.00  0.00    +0.000 C 
ATOM     36  C   UNL     1       3.498  -1.641   2.650  1.00  0.00    +0.000 C 
ATOM     37  C   UNL     1       2.876  -1.023   1.375  1.00  0.00    +0.000 C 
BRANCH  35  38
ATOM     38  O   UNL     1       3.998  -1.034   5.006  1.00  0.00    +0.000 OA
ATOM     39  H   UNL     1       4.481  -1.871   4.842  1.00  0.00    +0.000 HD
ENDBRANCH  35  38
BRANCH  37  40
ATOM     40  O   UNL     1       2.456  -2.098   0.497  1.00  0.00    +0.000 OA
BRANCH  40  41
ATOM     41  C   UNL     1       3.370  -2.574  -0.386  1.00  0.00    +0.000 C 
ATOM     42  C   UNL     1       2.728  -3.575  -1.296  1.00  0.00    +0.000 C 
ATOM     43  O   UNL     1       4.553  -2.271  -0.424  1.00  0.00    +0.000 OA
ENDBRANCH  40  41
ENDBRANCH  37  40
BRANCH  36  44
ATOM     44  O   UNL     1       4.935  -1.637   2.514  1.00  0.00    +0.000 OA
BRANCH  44  45
ATOM     45  C   UNL     1       5.532  -2.922   2.761  1.00  0.00    +0.000 C 
ATOM     46  O   UNL     1       5.183  -3.311   4.093  1.00  0.00    +0.000 OA
ATOM     47  C   UNL     1       6.035  -4.285   4.702  1.00  0.00    +0.000 C 
ATOM     48  C   UNL     1       6.884  -5.094   3.725  1.00  0.00    +0.000 C 
ATOM     49  C   UNL     1       7.748  -4.158   2.875  1.00  0.00    +0.000 C 
ATOM     50  C   UNL     1       7.059  -2.808   2.575  1.00  0.00    +0.000 C 
BRANCH  49  51
ATOM     51  O   UNL     1       8.986  -3.938   3.570  1.00  0.00    +0.000 OA
ATOM     52  H   UNL     1       9.477  -3.243   3.076  1.00  0.00    +0.000 HD
ENDBRANCH  49  51
BRANCH  48  53
ATOM     53  O   UNL     1       6.019  -5.862   2.878  1.00  0.00    +0.000 OA
ATOM     54  H   UNL     1       6.573  -6.537   2.445  1.00  0.00    +0.000 HD
ENDBRANCH  48  53
BRANCH  50  55
ATOM     55  O   UNL     1       7.362  -2.408   1.211  1.00  0.00    +0.000 OA
BRANCH  55  56
ATOM     56  C   UNL     1       8.635  -2.007   0.980  1.00  0.00    +0.000 C 
ATOM     57  O   UNL     1       9.521  -1.968   1.823  1.00  0.00    +0.000 OA
BRANCH  56  58
ATOM     58  C   UNL     1       8.853  -1.659  -0.448  1.00  0.00    +0.000 A 
ATOM     59  C   UNL     1      10.070  -1.064  -0.800  1.00  0.00    +0.000 A 
ATOM     60  C   UNL     1      10.340  -0.739  -2.132  1.00  0.00    +0.000 A 
ATOM     61  C   UNL     1       9.395  -1.003  -3.128  1.00  0.00    +0.000 A 
ATOM     62  C   UNL     1       8.164  -1.593  -2.776  1.00  0.00    +0.000 A 
ATOM     63  C   UNL     1       7.903  -1.928  -1.441  1.00  0.00    +0.000 A 
BRANCH  62  64
ATOM     64  O   UNL     1       7.288  -1.830  -3.809  1.00  0.00    +0.000 OA
ATOM     65  C   UNL     1       5.923  -2.021  -3.461  1.00  0.00    +0.000 C 
ENDBRANCH  62  64
BRANCH  61  66
ATOM     66  O   UNL     1       9.572  -0.723  -4.459  1.00  0.00    +0.000 OA
ATOM     67  C   UNL     1      10.771  -0.065  -4.841  1.00  0.00    +0.000 C 
ENDBRANCH  61  66
ENDBRANCH  56  58
ENDBRANCH  55  56
ENDBRANCH  50  55
ENDBRANCH  44  45
ENDBRANCH  36  44
ENDBRANCH  31  32
ENDBRANCH  17  31
BRANCH   1  68
ATOM     68  O   UNL     1      -9.370   0.561   1.117  1.00  0.00    +0.000 OA
BRANCH  68  69
ATOM     69  C   UNL     1     -10.775   0.794   1.292  1.00  0.00    +0.000 C 
ATOM     70  O   UNL     1     -11.300   1.542   0.192  1.00  0.00    +0.000 OA
ATOM     71  C   UNL     1     -11.382   2.961   0.384  1.00  0.00    +0.000 C 
ATOM     72  C   UNL     1     -10.227   3.478   1.251  1.00  0.00    +0.000 C 
ATOM     73  C   UNL     1     -10.344   2.884   2.664  1.00  0.00    +0.000 C 
ATOM     74  C   UNL     1     -10.956   1.472   2.668  1.00  0.00    +0.000 C 
BRANCH  74  75
ATOM     75  O   UNL     1     -12.349   1.539   3.004  1.00  0.00    +0.000 OA
ATOM     76  H   UNL     1     -12.412   1.871   3.918  1.00  0.00    +0.000 HD
ENDBRANCH  74  75
BRANCH  73  77
ATOM     77  O   UNL     1      -9.040   2.890   3.267  1.00  0.00    +0.000 OA
ATOM     78  H   UNL     1      -8.506   2.209   2.811  1.00  0.00    +0.000 HD
ENDBRANCH  73  77
BRANCH  72  79
ATOM     79  O   UNL     1     -10.203   4.910   1.334  1.00  0.00    +0.000 OA
ATOM     80  H   UNL     1      -9.529   5.126   2.009  1.00  0.00    +0.000 HD
ENDBRANCH  72  79
BRANCH  71  81
ATOM     81  C   UNL     1     -11.409   3.635  -0.996  1.00  0.00    +0.000 C 
BRANCH  81  82
ATOM     82  O   UNL     1     -11.691   5.028  -0.915  1.00  0.00    +0.000 OA
ATOM     83  H   UNL     1     -11.139   5.382  -0.184  1.00  0.00    +0.000 HD
ENDBRANCH  81  82
ENDBRANCH  71  81
ENDBRANCH  68  69
ENDBRANCH   1  68
TORSDOF 27
