REMARK  Name = /srv/my_project/app/compsite/backup/Dave/CORINA_stuff/newPDBs/SANC00234.pdb
AUTHORGENERATED BY OPEN BABEL 2.3.2
REMARK  13 active torsions:
REMARK  status: ('A' for Active; 'I' for Inactive)
REMARK    1  A    between atoms: C_1  and  C_2
REMARK    2  A    between atoms: C_2  and  C_4
REMARK    3  A    between atoms: C_2  and  C_10
REMARK    4  A    between atoms: C_4  and  C_5
REMARK    5  A    between atoms: C_5  and  C_6
REMARK    6  A    between atoms: C_6  and  C_7
REMARK    7  A    between atoms: C_7  and  C_8
REMARK    8  A    between atoms: C_7  and  C_9
REMARK    9  A    between atoms: C_15  and  C_33
REMARK   10  A    between atoms: C_19  and  O_32
REMARK   11  A    between atoms: C_22  and  O_31
REMARK   12  A    between atoms: C_23  and  C_30
REMARK   13  A    between atoms: C_26  and  O_29
REMARK                            x       y       z     vdW  Elec       q    Type
REMARK                         _______ _______ _______ _____ _____    ______ ____
ROOT
ATOM      1  C   UNL     1       1.761   0.724  -0.107  1.00  0.00    +0.000 C 
ATOM      2  C   UNL     1       1.919   1.075   1.401  1.00  0.00    +0.000 C 
ATOM      3  C   UNL     1       0.549   0.859   2.063  1.00  0.00    +0.000 C 
ATOM      4  C   UNL     1      -0.280   0.194   0.973  1.00  0.00    +0.000 C 
ATOM      5  C   UNL     1       0.213   0.838  -0.342  1.00  0.00    +0.000 C 
ATOM      6  C   UNL     1      -0.316  -0.025  -1.527  1.00  0.00    +0.000 C 
ATOM      7  C   UNL     1      -1.663  -0.759  -1.272  1.00  0.00    +0.000 C 
ATOM      8  C   UNL     1      -2.513  -0.018  -0.237  1.00  0.00    +0.000 C 
ATOM      9  C   UNL     1      -1.809   0.014   1.157  1.00  0.00    +0.000 C 
ATOM     10  C   UNL     1      -2.596   1.003   2.001  1.00  0.00    +0.000 C 
ATOM     11  C   UNL     1      -3.949   0.985   1.990  1.00  0.00    +0.000 C 
ATOM     12  C   UNL     1      -4.670  -0.102   1.229  1.00  0.00    +0.000 C 
ATOM     13  C   UNL     1      -4.084  -0.256  -0.226  1.00  0.00    +0.000 C 
ATOM     14  C   UNL     1      -4.551  -1.625  -0.776  1.00  0.00    +0.000 C 
ATOM     15  C   UNL     1      -6.085  -1.768  -0.748  1.00  0.00    +0.000 C 
ATOM     16  C   UNL     1      -6.758  -1.336   0.566  1.00  0.00    +0.000 C 
ATOM     17  C   UNL     1      -6.200  -0.045   1.197  1.00  0.00    +0.000 C 
ATOM     18  C   UNL     1      -4.656   0.856  -1.175  1.00  0.00    +0.000 C 
ATOM     19  C   UNL     1      -0.181   2.328  -0.493  1.00  0.00    +0.000 C 
ENDROOT
BRANCH   1  21
ATOM     20  C   UNL     1       2.574   1.180  -2.497  1.00  0.00    +0.000 C 
ATOM     21  C   UNL     1       2.719   1.542  -1.015  1.00  0.00    +0.000 C 
BRANCH  21  22
ATOM     22  C   UNL     1       4.206   1.432  -0.587  1.00  0.00    +0.000 C 
BRANCH  22  23
ATOM     23  C   UNL     1       4.798   0.018  -0.625  1.00  0.00    +0.000 C 
BRANCH  23  24
ATOM     24  C   UNL     1       6.278   0.032  -0.224  1.00  0.00    +0.000 C 
BRANCH  24  25
ATOM     25  C   UNL     1       6.899  -1.373  -0.117  1.00  0.00    +0.000 C 
ATOM     26  C   UNL     1       8.325  -1.270   0.429  1.00  0.00    +0.000 C 
ATOM     27  C   UNL     1       6.911  -2.111  -1.456  1.00  0.00    +0.000 C 
ENDBRANCH  24  25
ENDBRANCH  23  24
ENDBRANCH  22  23
ENDBRANCH  21  22
ENDBRANCH   1  21
BRANCH  16  28
ATOM     28  O   UNL     1      -8.162  -1.184   0.358  1.00  0.00    +0.000 OA
ATOM     29  H   UNL     1      -8.295  -0.524  -0.344  1.00  0.00    +0.000 HD
ENDBRANCH  16  28
BRANCH  12  30
ATOM     30  O   UNL     1      -4.380  -1.299   1.989  1.00  0.00    +0.000 OA
ATOM     31  H   UNL     1      -4.673  -1.135   2.906  1.00  0.00    +0.000 HD
ENDBRANCH  12  30
BRANCH   9  32
ATOM     32  O   UNL     1      -1.886  -1.261   1.809  1.00  0.00    +0.000 OA
ATOM     33  H   UNL     1      -2.828  -1.519   1.853  1.00  0.00    +0.000 HD
ENDBRANCH   9  32
TORSDOF 8
