REMARK  Name = SANCDB_00897_minRM1.pdb
AUTHORGENERATED BY OPEN BABEL 2.3.2
REMARK  16 active torsions:
REMARK  status: ('A' for Active; 'I' for Inactive)
REMARK    1  A    between atoms: C_1  and  C_2
REMARK    2  A    between atoms: C_2  and  C_3
REMARK    3  A    between atoms: C_3  and  C_4
REMARK    4  A    between atoms: C_4  and  C_5
REMARK    5  A    between atoms: C_5  and  C_6
REMARK    6  A    between atoms: C_6  and  C_7
REMARK    7  A    between atoms: C_7  and  C_8
REMARK    8  A    between atoms: C_8  and  C_9
REMARK    9  A    between atoms: C_10  and  C_11
REMARK   10  A    between atoms: C_11  and  C_12
REMARK   11  A    between atoms: C_12  and  C_13
REMARK   12  A    between atoms: C_13  and  C_14
REMARK   13  A    between atoms: C_14  and  C_15
REMARK   14  A    between atoms: C_15  and  C_16
REMARK   15  A    between atoms: C_16  and  C_17
REMARK   16  A    between atoms: C_17  and  O_19
REMARK                            x       y       z     vdW  Elec       q    Type
REMARK                         _______ _______ _______ _____ _____    ______ ____
ROOT
ATOM      1  C   UNL     1       0.290   1.378   1.065  1.00  0.00    +0.000 C 
ATOM      2  C   UNL     1       1.476   1.474   0.443  1.00  0.00    +0.000 C 
ENDROOT
BRANCH   1   3
ATOM      3  C   UNL     1      -1.004   0.868   0.495  1.00  0.00    +0.000 C 
BRANCH   3   4
ATOM      4  C   UNL     1      -1.467  -0.390   1.236  1.00  0.00    +0.000 C 
BRANCH   4   5
ATOM      5  C   UNL     1      -2.727  -1.021   0.634  1.00  0.00    +0.000 C 
BRANCH   5   6
ATOM      6  C   UNL     1      -3.970  -0.136   0.759  1.00  0.00    +0.000 C 
BRANCH   6   7
ATOM      7  C   UNL     1      -5.216  -0.858   0.240  1.00  0.00    +0.000 C 
BRANCH   7   8
ATOM      8  C   UNL     1      -6.509  -0.063   0.441  1.00  0.00    +0.000 C 
BRANCH   8  10
ATOM      9  C   UNL     1      -6.405   1.223  -1.762  1.00  0.00    +0.000 C 
ATOM     10  C   UNL     1      -6.567   1.301  -0.253  1.00  0.00    +0.000 C 
ENDBRANCH   8  10
ENDBRANCH   7   8
ENDBRANCH   6   7
ENDBRANCH   5   6
ENDBRANCH   4   5
ENDBRANCH   3   4
ENDBRANCH   1   3
BRANCH   2  11
ATOM     11  C   UNL     1       1.792   1.116  -0.983  1.00  0.00    +0.000 C 
BRANCH  11  12
ATOM     12  C   UNL     1       2.441  -0.263  -1.129  1.00  0.00    +0.000 C 
BRANCH  12  13
ATOM     13  C   UNL     1       3.824  -0.355  -0.474  1.00  0.00    +0.000 C 
BRANCH  13  14
ATOM     14  C   UNL     1       4.463  -1.723  -0.721  1.00  0.00    +0.000 C 
BRANCH  14  15
ATOM     15  C   UNL     1       5.792  -1.936   0.014  1.00  0.00    +0.000 C 
BRANCH  15  16
ATOM     16  C   UNL     1       6.928  -1.031  -0.464  1.00  0.00    +0.000 C 
BRANCH  16  17
ATOM     17  C   UNL     1       6.971   0.303   0.234  1.00  0.00    +0.000 C 
ATOM     18  O   UNL     1       6.450   0.606   1.293  1.00  0.00    +0.000 OA
BRANCH  17  19
ATOM     19  O   UNL     1       7.718   1.199  -0.440  1.00  0.00    +0.000 OA
ATOM     20  H   UNL     1       7.682   2.004   0.118  1.00  0.00    +0.000 HD
ENDBRANCH  17  19
ENDBRANCH  16  17
ENDBRANCH  15  16
ENDBRANCH  14  15
ENDBRANCH  13  14
ENDBRANCH  12  13
ENDBRANCH  11  12
ENDBRANCH   2  11
TORSDOF 15
