REMARK  Name = SANCDB_00919_minRM1.pdb
AUTHORGENERATED BY OPEN BABEL 2.3.2
REMARK  9 active torsions:
REMARK  status: ('A' for Active; 'I' for Inactive)
REMARK    1  A    between atoms: C_1  and  C_2
REMARK    2  A    between atoms: C_5  and  C_8
REMARK    3  A    between atoms: C_8  and  C_9
REMARK    4  A    between atoms: C_8  and  C_10
REMARK    5  A    between atoms: C_8  and  O_16
REMARK    6  A    between atoms: C_10  and  C_11
REMARK    7  A    between atoms: C_11  and  C_12
REMARK    8  A    between atoms: C_13  and  C_14
REMARK    9  A    between atoms: C_13  and  C_15
REMARK                            x       y       z     vdW  Elec       q    Type
REMARK                         _______ _______ _______ _____ _____    ______ ____
ROOT
ATOM      1  C   UNL     1       0.225  -1.521   0.258  1.00  0.00    +0.000 C 
ATOM      2  C   UNL     1       0.172  -3.062   0.137  1.00  0.00    +0.000 C 
ENDROOT
BRANCH   1   7
ATOM      3  C   UNL     1      -5.064   1.167   0.145  1.00  0.00    +0.000 C 
ATOM      4  C   UNL     1      -3.692   0.558   0.166  1.00  0.00    +0.000 C 
ATOM      5  C   UNL     1      -2.735   0.984   1.009  1.00  0.00    +0.000 C 
ATOM      6  C   UNL     1      -1.360   0.381   1.094  1.00  0.00    +0.000 C 
ATOM      7  C   UNL     1      -1.233  -0.968   0.351  1.00  0.00    +0.000 C 
ATOM      8  C   UNL     1      -1.970  -0.909  -0.997  1.00  0.00    +0.000 C 
ATOM      9  C   UNL     1      -3.451  -0.562  -0.813  1.00  0.00    +0.000 C 
ENDBRANCH   1   7
BRANCH   1  10
ATOM     10  O   UNL     1       0.909  -1.251   1.486  1.00  0.00    +0.000 OA
ATOM     11  H   UNL     1       0.433  -1.703   2.204  1.00  0.00    +0.000 HD
ENDBRANCH   1  10
BRANCH   1  12
ATOM     12  C   UNL     1       1.091  -1.010  -0.926  1.00  0.00    +0.000 C 
BRANCH  12  13
ATOM     13  C   UNL     1       1.383   0.490  -1.054  1.00  0.00    +0.000 C 
BRANCH  13  14
ATOM     14  C   UNL     1       2.293   1.037   0.010  1.00  0.00    +0.000 C 
ATOM     15  C   UNL     1       3.579   1.423  -0.112  1.00  0.00    +0.000 C 
ATOM     16  C   UNL     1       4.398   1.347  -1.370  1.00  0.00    +0.000 C 
ATOM     17  C   UNL     1       4.325   1.971   1.077  1.00  0.00    +0.000 C 
ENDBRANCH  13  14
ENDBRANCH  12  13
ENDBRANCH   1  12
TORSDOF 5
