REMARK  Name = /srv/my_project/app/compsite/backup/Dave/CORINA_stuff/newPDBs/SANC00446.pdb
AUTHORGENERATED BY OPEN BABEL 2.3.2
REMARK  16 active torsions:
REMARK  status: ('A' for Active; 'I' for Inactive)
REMARK    1  A    between atoms: C_1  and  C_2
REMARK    2  A    between atoms: C_13  and  O_20
REMARK    3  A    between atoms: C_16  and  C_18
REMARK    4  A    between atoms: C_16  and  C_19
REMARK    5  A    between atoms: C_32  and  C_82
REMARK    6  A    between atoms: C_39  and  O_80
REMARK    7  A    between atoms: C_41  and  C_79
REMARK    8  A    between atoms: C_51  and  O_75
REMARK    9  A    between atoms: C_53  and  C_74
REMARK   10  A    between atoms: C_58  and  O_73
REMARK   11  A    between atoms: C_59  and  C_72
REMARK   12  A    between atoms: C_63  and  O_71
REMARK   13  A    between atoms: C_66  and  C_68
REMARK   14  A    between atoms: C_66  and  C_69
REMARK   15  A    between atoms: C_69  and  O_70
REMARK   16  A    between atoms: O_80  and  C_81
REMARK                            x       y       z     vdW  Elec       q    Type
REMARK                         _______ _______ _______ _____ _____    ______ ____
ROOT
ATOM      1  C   UNL     1      11.691   2.888   0.389  1.00  0.00    +0.000 C 
ATOM      2  C   UNL     1      10.554   2.000   0.913  1.00  0.00    +0.000 C 
ATOM      3  C   UNL     1       9.438   1.903  -0.157  1.00  0.00    +0.000 C 
ATOM      4  C   UNL     1       9.893   1.603  -1.594  1.00  0.00    +0.000 C 
ATOM      5  C   UNL     1       8.665   0.995  -2.192  1.00  0.00    +0.000 C 
ATOM      6  C   UNL     1       7.806   0.571  -1.252  1.00  0.00    +0.000 C 
ATOM      7  C   UNL     1       8.357   0.842   0.139  1.00  0.00    +0.000 C 
ATOM      8  C   UNL     1       8.932  -0.425   0.770  1.00  0.00    +0.000 C 
ATOM      9  O   UNL     1       9.833  -0.146   1.834  1.00  0.00    +0.000 OA
ATOM     10  C   UNL     1      10.995   0.612   1.435  1.00  0.00    +0.000 C 
ATOM     11  C   UNL     1      11.916   0.613   2.682  1.00  0.00    +0.000 C 
ATOM     12  C   UNL     1      12.560  -0.756   2.574  1.00  0.00    +0.000 C 
ATOM     13  C   UNL     1      12.695  -0.957   1.060  1.00  0.00    +0.000 C 
ATOM     14  O   UNL     1      11.714  -0.116   0.425  1.00  0.00    +0.000 OA
ATOM     15  C   UNL     1      12.416  -2.405   0.661  1.00  0.00    +0.000 C 
ATOM     16  C   UNL     1      14.070  -0.534   0.537  1.00  0.00    +0.000 C 
ATOM     17  C   UNL     1       7.228   1.414   1.001  1.00  0.00    +0.000 C 
ATOM     18  O   UNL     1       7.403   2.333   1.803  1.00  0.00    +0.000 OA
ATOM     19  C   UNL     1       5.875   0.733   0.905  1.00  0.00    +0.000 C 
ATOM     20  C   UNL     1       5.402   0.623  -0.558  1.00  0.00    +0.000 C 
ATOM     21  C   UNL     1       6.471  -0.117  -1.412  1.00  0.00    +0.000 C 
ATOM     22  C   UNL     1       6.028  -0.233  -2.881  1.00  0.00    +0.000 C 
ATOM     23  C   UNL     1       4.643  -0.847  -3.033  1.00  0.00    +0.000 C 
ATOM     24  C   UNL     1       3.603  -0.070  -2.219  1.00  0.00    +0.000 C 
ATOM     25  C   UNL     1       3.963  -0.006  -0.703  1.00  0.00    +0.000 C 
ATOM     26  C   UNL     1       2.912   0.917  -0.020  1.00  0.00    +0.000 C 
ATOM     27  C   UNL     1       1.482   0.649  -0.410  1.00  0.00    +0.000 A 
ATOM     28  C   UNL     1       1.149  -0.032  -1.577  1.00  0.00    +0.000 A 
ATOM     29  C   UNL     1       2.196  -0.633  -2.470  1.00  0.00    +0.000 C 
ATOM     30  N   UNL     1      -0.143  -0.239  -1.936  1.00  0.00    +0.000 NA
ATOM     31  C   UNL     1      -1.101   0.278  -1.117  1.00  0.00    +0.000 A 
ATOM     32  C   UNL     1      -2.547   0.088  -1.539  1.00  0.00    +0.000 C 
ATOM     33  C   UNL     1      -3.542   0.097  -0.323  1.00  0.00    +0.000 C 
ATOM     34  C   UNL     1      -3.243   1.387   0.508  1.00  0.00    +0.000 C 
ATOM     35  C   UNL     1      -4.231   1.593   1.665  1.00  0.00    +0.000 C 
ATOM     36  C   UNL     1      -5.672   1.638   1.169  1.00  0.00    +0.000 C 
ATOM     37  C   UNL     1      -6.043   0.383   0.365  1.00  0.00    +0.000 C 
ATOM     38  C   UNL     1      -5.045   0.177  -0.814  1.00  0.00    +0.000 C 
ATOM     39  C   UNL     1      -5.468  -0.997  -1.732  1.00  0.00    +0.000 C 
ATOM     40  C   UNL     1      -6.942  -0.903  -2.174  1.00  0.00    +0.000 C 
ATOM     41  C   UNL     1      -7.931  -0.799  -0.974  1.00  0.00    +0.000 C 
ATOM     42  C   UNL     1      -7.449   0.402  -0.183  1.00  0.00    +0.000 C 
ATOM     43  C   UNL     1      -8.340   1.401  -0.201  1.00  0.00    +0.000 C 
ATOM     44  C   UNL     1      -9.565   1.075  -0.987  1.00  0.00    +0.000 C 
ATOM     45  C   UNL     1      -9.408  -0.406  -1.421  1.00  0.00    +0.000 C 
ATOM     46  C   UNL     1     -10.637  -1.086  -0.752  1.00  0.00    +0.000 C 
ATOM     47  C   UNL     1     -11.031  -0.092   0.357  1.00  0.00    +0.000 C 
ATOM     48  O   UNL     1     -10.700   1.210  -0.134  1.00  0.00    +0.000 OA
ATOM     49  C   UNL     1     -12.496  -0.071   0.835  1.00  0.00    +0.000 C 
ATOM     50  C   UNL     1     -12.495  -1.095   1.943  1.00  0.00    +0.000 C 
ATOM     51  C   UNL     1     -11.112  -0.909   2.571  1.00  0.00    +0.000 C 
ATOM     52  O   UNL     1     -10.246  -0.393   1.531  1.00  0.00    +0.000 OA
ATOM     53  C   UNL     1     -11.107   0.103   3.723  1.00  0.00    +0.000 C 
ATOM     54  C   UNL     1     -11.771  -1.353  -1.754  1.00  0.00    +0.000 C 
ATOM     55  C   UNL     1      -7.899  -2.100  -0.147  1.00  0.00    +0.000 C 
ATOM     56  C   UNL     1      -1.799   1.434   1.030  1.00  0.00    +0.000 C 
ATOM     57  C   UNL     1      -0.765   0.962   0.049  1.00  0.00    +0.000 A 
ATOM     58  N   UNL     1       0.530   1.150   0.414  1.00  0.00    +0.000 NA
ATOM     59  C   UNL     1      -3.310  -1.192   0.514  1.00  0.00    +0.000 C 
ATOM     60  C   UNL     1       3.899  -1.404  -0.034  1.00  0.00    +0.000 C 
ENDROOT
BRANCH  11  61
ATOM     61  O   UNL     1      12.948   1.594   2.693  1.00  0.00    +0.000 OA
ATOM     62  H   UNL     1      13.406   1.524   3.548  1.00  0.00    +0.000 HD
ENDBRANCH  11  61
BRANCH  49  63
ATOM     63  O   UNL     1     -12.850   1.204   1.392  1.00  0.00    +0.000 OA
ATOM     64  H   UNL     1     -12.236   1.845   0.974  1.00  0.00    +0.000 HD
ENDBRANCH  49  63
BRANCH  45  65
ATOM     65  O   UNL     1      -9.526  -0.487  -2.853  1.00  0.00    +0.000 OA
ATOM     66  H   UNL     1      -9.113  -1.334  -3.123  1.00  0.00    +0.000 HD
ENDBRANCH  45  65
BRANCH  40  67
ATOM     67  O   UNL     1      -7.277  -2.042  -2.977  1.00  0.00    +0.000 OA
ATOM     68  H   UNL     1      -6.622  -2.084  -3.697  1.00  0.00    +0.000 HD
ENDBRANCH  40  67
BRANCH  32  69
ATOM     69  O   UNL     1      -2.939   1.138  -2.445  1.00  0.00    +0.000 OA
ATOM     70  C   UNL     1      -2.395   1.000  -3.752  1.00  0.00    +0.000 C 
ENDBRANCH  32  69
BRANCH  51  71
ATOM     71  C   UNL     1     -10.531  -2.256   3.041  1.00  0.00    +0.000 C 
BRANCH  71  72
ATOM     72  O   UNL     1      -9.198  -2.099   3.530  1.00  0.00    +0.000 OA
ATOM     73  H   UNL     1      -8.781  -1.430   2.952  1.00  0.00    +0.000 HD
ENDBRANCH  71  72
ENDBRANCH  51  71
TORSDOF 7
