REMARK  Name = 
REMARK  18 active torsions:
REMARK  status: ('A' for Active; 'I' for Inactive)
REMARK    1  A    between atoms: C_1  and  C_2
REMARK    2  A    between atoms: C_2  and  O_4
REMARK    3  A    between atoms: O_4  and  C_5
REMARK    4  A    between atoms: C_7  and  C_8
REMARK    5  A    between atoms: C_9  and  O_10
REMARK    6  A    between atoms: C_12  and  C_13
REMARK    7  A    between atoms: C_13  and  C_14
REMARK    8  A    between atoms: C_15  and  C_16
REMARK    9  A    between atoms: C_15  and  C_17
REMARK   10  A    between atoms: C_17  and  C_18
REMARK   11  A    between atoms: C_18  and  C_19
REMARK   12  A    between atoms: C_19  and  C_20
REMARK   13  A    between atoms: C_20  and  C_21
REMARK   14  A    between atoms: C_22  and  C_23
REMARK   15  A    between atoms: C_23  and  C_25
REMARK   16  A    between atoms: C_25  and  C_26
REMARK   17  A    between atoms: C_26  and  C_27
REMARK   18  A    between atoms: C_26  and  C_28
REMARK                            x       y       z     vdW  Elec       q    Type
REMARK                         _______ _______ _______ _____ _____    ______ ____
ROOT
ATOM      1  C   UNL     1      -1.857  -0.414   1.372  1.00  0.00    +0.000 C 
ATOM      2  C   UNL     1      -1.162   0.735   1.499  1.00  0.00    +0.000 C 
ATOM      3  C   UNL     1      -1.746   2.057   1.920  1.00  0.00    +0.000 C 
ENDROOT
BRANCH   1   4
ATOM      4  C   UNL     1      -3.331  -0.634   1.589  1.00  0.00    +0.000 C 
BRANCH   4  11
ATOM      5  C   UNL     1      -4.010  -1.174  -0.819  1.00  0.00    +0.000 A 
ATOM      6  C   UNL     1      -4.599  -2.010  -1.773  1.00  0.00    +0.000 A 
ATOM      7  C   UNL     1      -5.199  -3.211  -1.380  1.00  0.00    +0.000 A 
ATOM      8  C   UNL     1      -5.842  -4.110  -2.394  1.00  0.00    +0.000 C 
ATOM      9  C   UNL     1      -5.180  -3.552  -0.025  1.00  0.00    +0.000 A 
ATOM     10  C   UNL     1      -4.576  -2.725   0.927  1.00  0.00    +0.000 A 
ATOM     11  C   UNL     1      -3.969  -1.519   0.540  1.00  0.00    +0.000 A 
BRANCH   9  12
ATOM     12  O   UNL     1      -5.766  -4.726   0.360  1.00  0.00    +0.000 OA
ATOM     13  H   UNL     1      -5.694  -4.809   1.325  1.00  0.00    +0.000 HD
ENDBRANCH   9  12
BRANCH   5  14
ATOM     14  O   UNL     1      -3.375  -0.022  -1.295  1.00  0.00    +0.000 OA
BRANCH  14  16
ATOM     15  C   UNL     1      -3.344   2.284  -1.730  1.00  0.00    +0.000 C 
ATOM     16  C   UNL     1      -4.127   1.137  -1.163  1.00  0.00    +0.000 C 
ATOM     17  O   UNL     1      -5.251   1.240  -0.691  1.00  0.00    +0.000 OA
ENDBRANCH  14  16
ENDBRANCH   5  14
ENDBRANCH   4  11
ENDBRANCH   1   4
BRANCH   2  18
ATOM     18  C   UNL     1       0.324   0.762   1.183  1.00  0.00    +0.000 C 
BRANCH  18  19
ATOM     19  C   UNL     1       1.185   0.738   2.450  1.00  0.00    +0.000 C 
BRANCH  19  20
ATOM     20  C   UNL     1       2.691   0.761   2.159  1.00  0.00    +0.000 C 
BRANCH  20  21
ATOM     21  C   UNL     1       3.195   2.049   1.535  1.00  0.00    +0.000 C 
ATOM     22  C   UNL     1       3.184   3.248   2.449  1.00  0.00    +0.000 C 
ATOM     23  C   UNL     1       3.683   2.169   0.285  1.00  0.00    +0.000 C 
BRANCH  23  24
ATOM     24  C   UNL     1       3.767   1.073  -0.726  1.00  0.00    +0.000 C 
ATOM     25  O   UNL     1       2.883   0.227  -0.828  1.00  0.00    +0.000 OA
BRANCH  24  26
ATOM     26  C   UNL     1       4.986   1.070  -1.630  1.00  0.00    +0.000 C 
BRANCH  26  27
ATOM     27  C   UNL     1       6.020  -0.013  -1.291  1.00  0.00    +0.000 C 
ATOM     28  C   UNL     1       5.477  -1.428  -1.490  1.00  0.00    +0.000 C 
ATOM     29  C   UNL     1       6.588   0.150   0.119  1.00  0.00    +0.000 C 
ENDBRANCH  26  27
ENDBRANCH  24  26
ENDBRANCH  23  24
ENDBRANCH  20  21
ENDBRANCH  19  20
ENDBRANCH  18  19
ENDBRANCH   2  18
TORSDOF 12
