REMARK  Name = /srv/my_project/app/compsite/backup/Dave/CORINA_stuff/newPDBs/SANC00233.pdb
AUTHORGENERATED BY OPEN BABEL 2.3.2
REMARK  15 active torsions:
REMARK  status: ('A' for Active; 'I' for Inactive)
REMARK    1  A    between atoms: C_1  and  C_2
REMARK    2  A    between atoms: C_2  and  C_4
REMARK    3  A    between atoms: C_2  and  C_10
REMARK    4  A    between atoms: C_4  and  C_5
REMARK    5  A    between atoms: C_5  and  C_6
REMARK    6  A    between atoms: C_6  and  C_7
REMARK    7  A    between atoms: C_7  and  C_8
REMARK    8  A    between atoms: C_7  and  C_9
REMARK    9  A    between atoms: C_14  and  C_21
REMARK   10  A    between atoms: C_16  and  C_17
REMARK   11  A    between atoms: C_16  and  C_18
REMARK   12  A    between atoms: C_18  and  C_19
REMARK   13  A    between atoms: C_19  and  O_20
REMARK   14  A    between atoms: C_27  and  O_35
REMARK   15  A    between atoms: C_31  and  C_34
REMARK                            x       y       z     vdW  Elec       q    Type
REMARK                         _______ _______ _______ _____ _____    ______ ____
ROOT
ATOM      1  C   UNL     1       1.395  -0.337   0.253  1.00  0.00    +0.000 C 
ATOM      2  C   UNL     1       1.226  -1.789  -0.268  1.00  0.00    +0.000 C 
ATOM      3  C   UNL     1      -0.247  -1.996  -0.604  1.00  0.00    +0.000 C 
ATOM      4  C   UNL     1      -0.899  -0.616  -0.445  1.00  0.00    +0.000 C 
ATOM      5  C   UNL     1      -0.057   0.074   0.690  1.00  0.00    +0.000 C 
ATOM      6  C   UNL     1      -0.403  -0.502   2.085  1.00  0.00    +0.000 C 
ENDROOT
BRANCH   4   7
ATOM      7  C   UNL     1      -2.412  -0.624  -0.291  1.00  0.00    +0.000 C 
ATOM      8  C   UNL     1      -3.108  -1.529   0.416  1.00  0.00    +0.000 C 
ATOM      9  C   UNL     1      -4.581  -1.581   0.505  1.00  0.00    +0.000 C 
ATOM     10  O   UNL     1      -5.126  -2.448   1.178  1.00  0.00    +0.000 OA
ATOM     11  C   UNL     1      -5.329  -0.547  -0.250  1.00  0.00    +0.000 C 
ATOM     12  C   UNL     1      -6.590  -0.836  -0.621  1.00  0.00    +0.000 C 
ATOM     13  C   UNL     1      -7.455   0.084  -1.419  1.00  0.00    +0.000 C 
ATOM     14  C   UNL     1      -6.881   1.497  -1.549  1.00  0.00    +0.000 C 
ATOM     15  C   UNL     1      -5.362   1.469  -1.749  1.00  0.00    +0.000 C 
ATOM     16  C   UNL     1      -4.625   0.740  -0.594  1.00  0.00    +0.000 C 
ATOM     17  C   UNL     1      -3.182   0.435  -1.031  1.00  0.00    +0.000 C 
ATOM     18  O   UNL     1      -2.624   1.079  -1.920  1.00  0.00    +0.000 OA
ATOM     19  C   UNL     1      -4.554   1.654   0.645  1.00  0.00    +0.000 C 
BRANCH  13  20
ATOM     20  O   UNL     1      -7.572  -0.506  -2.708  1.00  0.00    +0.000 OA
ATOM     21  H   UNL     1      -8.197   0.035  -3.219  1.00  0.00    +0.000 HD
ENDBRANCH  13  20
ENDBRANCH   4   7
BRANCH   1  23
ATOM     22  C   UNL     1       2.754   1.164   1.855  1.00  0.00    +0.000 C 
ATOM     23  C   UNL     1       2.576  -0.241   1.273  1.00  0.00    +0.000 C 
BRANCH  23  24
ATOM     24  C   UNL     1       3.901  -0.708   0.603  1.00  0.00    +0.000 C 
BRANCH  24  25
ATOM     25  C   UNL     1       5.097  -0.775   1.558  1.00  0.00    +0.000 C 
BRANCH  25  26
ATOM     26  C   UNL     1       6.278  -1.612   1.046  1.00  0.00    +0.000 C 
BRANCH  26  27
ATOM     27  C   UNL     1       7.039  -1.127  -0.205  1.00  0.00    +0.000 C 
ATOM     28  C   UNL     1       7.354   0.367  -0.178  1.00  0.00    +0.000 C 
ATOM     29  C   UNL     1       6.356  -1.517  -1.516  1.00  0.00    +0.000 C 
ENDBRANCH  26  27
ENDBRANCH  25  26
ENDBRANCH  24  25
ENDBRANCH  23  24
ENDBRANCH   1  23
BRANCH   5  30
ATOM     30  C   UNL     1      -0.335   1.603   0.737  1.00  0.00    +0.000 C 
BRANCH  30  31
ATOM     31  C   UNL     1       0.114   2.437  -0.459  1.00  0.00    +0.000 C 
BRANCH  31  32
ATOM     32  O   UNL     1      -0.300   3.782  -0.240  1.00  0.00    +0.000 OA
ATOM     33  H   UNL     1      -0.135   4.264  -1.069  1.00  0.00    +0.000 HD
ENDBRANCH  31  32
ENDBRANCH  30  31
ENDBRANCH   5  30
TORSDOF 10
