REMARK  Name = /srv/my_project/app/compsite/backup/Dave/CORINA_stuff/newPDBs/SANC00325.pdb
AUTHORGENERATED BY OPEN BABEL 2.3.2
REMARK  2 active torsions:
REMARK  status: ('A' for Active; 'I' for Inactive)
REMARK    1  A    between atoms: C_4  and  O_6
REMARK    2  A    between atoms: O_6  and  C_7
REMARK                            x       y       z     vdW  Elec       q    Type
REMARK                         _______ _______ _______ _____ _____    ______ ____
ROOT
ATOM      1  C   UNL     1       1.472  -1.050   0.282  1.00  0.00    +0.000 C 
ATOM      2  C   UNL     1       1.988  -0.074  -0.777  1.00  0.00    +0.000 C 
ATOM      3  C   UNL     1       2.650   1.129  -0.069  1.00  0.00    +0.000 C 
ATOM      4  C   UNL     1       1.972   1.531   1.224  1.00  0.00    +0.000 C 
ATOM      5  C   UNL     1       0.966   0.849   1.803  1.00  0.00    +0.000 C 
ATOM      6  C   UNL     1       0.391  -0.400   1.183  1.00  0.00    +0.000 C 
ATOM      7  C   UNL     1       0.130  -1.585   2.123  1.00  0.00    +0.000 C 
ATOM      8  C   UNL     1       0.304  -2.819   1.209  1.00  0.00    +0.000 C 
ATOM      9  N   UNL     1       0.850  -2.339  -0.093  1.00  0.00    +0.000 NA
ATOM     10  C   UNL     1      -0.243  -2.119  -1.065  1.00  0.00    +0.000 C 
ATOM     11  C   UNL     1      -1.215  -1.018  -0.686  1.00  0.00    +0.000 A 
ATOM     12  C   UNL     1      -2.397  -0.853  -1.425  1.00  0.00    +0.000 A 
ATOM     13  C   UNL     1      -3.251   0.162  -1.055  1.00  0.00    +0.000 A 
ATOM     14  O   UNL     1      -4.436   0.459  -1.654  1.00  0.00    +0.000 OA
ATOM     15  C   UNL     1      -4.865   1.584  -0.860  1.00  0.00    +0.000 C 
ATOM     16  O   UNL     1      -3.949   1.921   0.202  1.00  0.00    +0.000 OA
ATOM     17  C   UNL     1      -2.972   0.996   0.001  1.00  0.00    +0.000 A 
ATOM     18  C   UNL     1      -1.820   0.870   0.748  1.00  0.00    +0.000 A 
ATOM     19  C   UNL     1      -0.910  -0.142   0.397  1.00  0.00    +0.000 A 
ENDROOT
BRANCH   3  20
ATOM     20  O   UNL     1       2.648   2.284  -0.909  1.00  0.00    +0.000 OA
ATOM     21  C   UNL     1       3.599   2.213  -1.963  1.00  0.00    +0.000 C 
ENDBRANCH   3  20
TORSDOF 1
