REMARK  Name = SANCDB_01097_minRM1.pdb
AUTHORGENERATED BY OPEN BABEL 2.3.2
REMARK  12 active torsions:
REMARK  status: ('A' for Active; 'I' for Inactive)
REMARK    1  A    between atoms: C_1  and  C_2
REMARK    2  A    between atoms: C_2  and  C_3
REMARK    3  A    between atoms: C_3  and  C_4
REMARK    4  A    between atoms: C_4  and  C_5
REMARK    5  A    between atoms: C_5  and  C_6
REMARK    6  A    between atoms: C_6  and  C_7
REMARK    7  A    between atoms: C_7  and  C_8
REMARK    8  A    between atoms: C_8  and  C_9
REMARK    9  A    between atoms: C_9  and  C_10
REMARK   10  A    between atoms: C_10  and  C_11
REMARK   11  A    between atoms: C_11  and  C_12
REMARK   12  A    between atoms: C_12  and  O_14
REMARK                            x       y       z     vdW  Elec       q    Type
REMARK                         _______ _______ _______ _____ _____    ______ ____
ROOT
ATOM      1  C   UNL     1       1.657  -1.103  -1.308  1.00  0.00    +0.000 C 
ENDROOT
BRANCH   1   2
ATOM      2  C   UNL     1       0.938  -1.176   0.042  1.00  0.00    +0.000 C 
BRANCH   2   3
ATOM      3  C   UNL     1      -0.571  -0.971  -0.122  1.00  0.00    +0.000 C 
BRANCH   3   4
ATOM      4  C   UNL     1      -1.290  -1.047   1.227  1.00  0.00    +0.000 C 
BRANCH   4   5
ATOM      5  C   UNL     1      -2.814  -0.962   1.110  1.00  0.00    +0.000 C 
BRANCH   5   6
ATOM      6  C   UNL     1      -3.311   0.394   0.602  1.00  0.00    +0.000 C 
BRANCH   6   8
ATOM      7  C   UNL     1      -5.339   1.807   0.109  1.00  0.00    +0.000 C 
ATOM      8  C   UNL     1      -4.838   0.464   0.616  1.00  0.00    +0.000 C 
ENDBRANCH   6   8
ENDBRANCH   5   6
ENDBRANCH   4   5
ENDBRANCH   3   4
ENDBRANCH   2   3
ENDBRANCH   1   2
BRANCH   1   9
ATOM      9  C   UNL     1       3.172  -1.305  -1.194  1.00  0.00    +0.000 C 
BRANCH   9  10
ATOM     10  C   UNL     1       3.986  -0.009  -1.141  1.00  0.00    +0.000 C 
BRANCH  10  11
ATOM     11  C   UNL     1       3.717   0.850   0.088  1.00  0.00    +0.000 C 
BRANCH  11  12
ATOM     12  C   UNL     1       4.719   1.964   0.193  1.00  0.00    +0.000 C 
ATOM     13  O   UNL     1       5.632   2.041   0.997  1.00  0.00    +0.000 OA
BRANCH  12  14
ATOM     14  O   UNL     1       4.523   2.931  -0.723  1.00  0.00    +0.000 OA
ATOM     15  H   UNL     1       5.236   3.579  -0.541  1.00  0.00    +0.000 HD
ENDBRANCH  12  14
ENDBRANCH  11  12
ENDBRANCH  10  11
ENDBRANCH   9  10
ENDBRANCH   1   9
TORSDOF 11
