REMARK  Name = /srv/my_project/app/compsite/backup/Dave/CORINA_stuff/newPDBs/SANC00184.pdb
AUTHORGENERATED BY OPEN BABEL 2.3.2
REMARK  4 active torsions:
REMARK  status: ('A' for Active; 'I' for Inactive)
REMARK    1  A    between atoms: C_2  and  C_8
REMARK    2  A    between atoms: C_8  and  O_9
REMARK    3  A    between atoms: C_18  and  C_20
REMARK    4  A    between atoms: C_25  and  C_26
REMARK                            x       y       z     vdW  Elec       q    Type
REMARK                         _______ _______ _______ _____ _____    ______ ____
ROOT
ATOM      1  C   UNL     1       3.013  -0.212  -0.603  1.00  0.00    +0.000 C 
ATOM      2  C   UNL     1       2.125  -1.419  -0.223  1.00  0.00    +0.000 C 
ATOM      3  C   UNL     1       0.715  -0.953   0.108  1.00  0.00    +0.000 C 
ATOM      4  C   UNL     1       0.286   0.152  -0.843  1.00  0.00    +0.000 C 
ATOM      5  C   UNL     1       1.167   1.378  -0.641  1.00  0.00    +0.000 C 
ATOM      6  C   UNL     1       0.552   2.398   0.339  1.00  0.00    +0.000 C 
ATOM      7  C   UNL     1      -0.571   3.285  -0.227  1.00  0.00    +0.000 C 
ATOM      8  C   UNL     1      -1.999   2.696  -0.313  1.00  0.00    +0.000 C 
ATOM      9  C   UNL     1      -2.957   3.771  -0.846  1.00  0.00    +0.000 C 
ATOM     10  C   UNL     1      -2.511   2.219   1.027  1.00  0.00    +0.000 C 
ATOM     11  C   UNL     1      -3.113   1.056   1.337  1.00  0.00    +0.000 C 
ATOM     12  C   UNL     1      -3.429  -0.118   0.446  1.00  0.00    +0.000 C 
ATOM     13  C   UNL     1      -2.993  -1.441   1.099  1.00  0.00    +0.000 C 
ATOM     14  C   UNL     1      -3.094  -2.641   0.172  1.00  0.00    +0.000 C 
ATOM     15  C   UNL     1      -4.438  -3.328   0.199  1.00  0.00    +0.000 C 
ATOM     16  C   UNL     1      -2.125  -3.112  -0.644  1.00  0.00    +0.000 C 
ATOM     17  C   UNL     1      -0.774  -2.557  -0.894  1.00  0.00    +0.000 C 
ATOM     18  O   UNL     1      -0.245  -2.605  -1.993  1.00  0.00    +0.000 OA
ATOM     19  O   UNL     1      -0.265  -1.998   0.219  1.00  0.00    +0.000 OA
ATOM     20  O   UNL     1       2.456   1.012  -0.099  1.00  0.00    +0.000 OA
ENDROOT
BRANCH   1  21
ATOM     21  C   UNL     1       4.455  -0.338  -0.033  1.00  0.00    +0.000 C 
ATOM     22  C   UNL     1       5.212  -1.565  -0.527  1.00  0.00    +0.000 C 
ATOM     23  S   UNL     1       6.535  -1.757   0.706  1.00  0.00    +0.000 S 
ATOM     24  C   UNL     1       5.652  -0.892   1.946  1.00  0.00    +0.000 C 
ATOM     25  O   UNL     1       6.019  -0.771   3.100  1.00  0.00    +0.000 OA
ATOM     26  N   UNL     1       4.511  -0.362   1.415  1.00  0.00    +0.000 N 
ATOM     27  H   UNL     1       4.052   0.352   1.969  1.00  0.00    +0.000 HD
ENDBRANCH   1  21
BRANCH   1  28
ATOM     28  O   UNL     1       3.094  -0.117  -2.022  1.00  0.00    +0.000 OA
ATOM     29  H   UNL     1       3.641   0.665  -2.212  1.00  0.00    +0.000 HD
ENDBRANCH   1  28
TORSDOF 2
