REMARK  Name = SANCDB_00949_minRM1.pdb
AUTHORGENERATED BY OPEN BABEL 2.3.2
REMARK  16 active torsions:
REMARK  status: ('A' for Active; 'I' for Inactive)
REMARK    1  A    between atoms: C_3  and  O_42
REMARK    2  A    between atoms: C_6  and  C_7
REMARK    3  A    between atoms: C_12  and  O_41
REMARK    4  A    between atoms: C_13  and  C_30
REMARK    5  A    between atoms: C_14  and  O_29
REMARK    6  A    between atoms: C_15  and  C_18
REMARK    7  A    between atoms: C_19  and  O_28
REMARK    8  A    between atoms: C_20  and  O_27
REMARK    9  A    between atoms: C_21  and  O_26
REMARK   10  A    between atoms: C_22  and  C_24
REMARK   11  A    between atoms: C_24  and  O_25
REMARK   12  A    between atoms: C_31  and  O_40
REMARK   13  A    between atoms: C_32  and  O_39
REMARK   14  A    between atoms: C_33  and  O_38
REMARK   15  A    between atoms: C_34  and  C_36
REMARK   16  A    between atoms: C_36  and  O_37
REMARK                            x       y       z     vdW  Elec       q    Type
REMARK                         _______ _______ _______ _____ _____    ______ ____
ROOT
ATOM      1  C   UNL     1       2.105   2.729   1.104  1.00  0.00    +0.000 A 
ATOM      2  C   UNL     1       1.134   3.648   1.190  1.00  0.00    +0.000 A 
ATOM      3  C   UNL     1      -0.221   3.280   0.764  1.00  0.00    +0.000 A 
ATOM      4  O   UNL     1      -1.147   4.082   0.818  1.00  0.00    +0.000 OA
ATOM      5  C   UNL     1      -0.433   1.907   0.282  1.00  0.00    +0.000 A 
ATOM      6  C   UNL     1      -1.705   1.457  -0.100  1.00  0.00    +0.000 A 
ATOM      7  C   UNL     1      -1.895   0.139  -0.547  1.00  0.00    +0.000 A 
ATOM      8  C   UNL     1      -0.770  -0.708  -0.588  1.00  0.00    +0.000 A 
ATOM      9  C   UNL     1       0.518  -0.283  -0.209  1.00  0.00    +0.000 A 
ATOM     10  C   UNL     1       0.663   1.046   0.233  1.00  0.00    +0.000 A 
ATOM     11  O   UNL     1       1.917   1.442   0.636  1.00  0.00    +0.000 OA
ENDROOT
BRANCH   9  12
ATOM     12  C   UNL     1       1.730  -1.214  -0.202  1.00  0.00    +0.000 C 
ATOM     13  C   UNL     1       1.826  -2.020   1.110  1.00  0.00    +0.000 C 
ATOM     14  C   UNL     1       3.141  -2.821   1.133  1.00  0.00    +0.000 C 
ATOM     15  C   UNL     1       3.716  -3.087  -0.263  1.00  0.00    +0.000 C 
ATOM     16  C   UNL     1       2.631  -3.173  -1.352  1.00  0.00    +0.000 C 
ATOM     17  O   UNL     1       1.614  -2.137  -1.308  1.00  0.00    +0.000 OA
BRANCH  13  18
ATOM     18  O   UNL     1       1.789  -1.223   2.301  1.00  0.00    +0.000 OA
ATOM     19  H   UNL     1       0.888  -0.861   2.380  1.00  0.00    +0.000 HD
ENDBRANCH  13  18
BRANCH  14  20
ATOM     20  O   UNL     1       2.919  -4.065   1.809  1.00  0.00    +0.000 OA
ATOM     21  H   UNL     1       2.636  -3.836   2.715  1.00  0.00    +0.000 HD
ENDBRANCH  14  20
BRANCH  15  22
ATOM     22  O   UNL     1       4.606  -2.012  -0.610  1.00  0.00    +0.000 OA
ATOM     23  H   UNL     1       5.406  -2.103  -0.060  1.00  0.00    +0.000 HD
ENDBRANCH  15  22
BRANCH  16  24
ATOM     24  C   UNL     1       1.906  -4.527  -1.317  1.00  0.00    +0.000 C 
BRANCH  24  25
ATOM     25  O   UNL     1       1.140  -4.712  -2.509  1.00  0.00    +0.000 OA
ATOM     26  H   UNL     1       0.769  -3.850  -2.766  1.00  0.00    +0.000 HD
ENDBRANCH  24  25
ENDBRANCH  16  24
ENDBRANCH   9  12
BRANCH   1  32
ATOM     27  C   UNL     1       4.137   4.207   1.206  1.00  0.00    +0.000 A 
ATOM     28  C   UNL     1       5.451   4.446   1.620  1.00  0.00    +0.000 A 
ATOM     29  C   UNL     1       6.119   3.484   2.368  1.00  0.00    +0.000 A 
ATOM     30  C   UNL     1       5.498   2.289   2.706  1.00  0.00    +0.000 A 
ATOM     31  C   UNL     1       4.186   2.050   2.291  1.00  0.00    +0.000 A 
ATOM     32  C   UNL     1       3.485   3.009   1.542  1.00  0.00    +0.000 A 
BRANCH  29  33
ATOM     33  O   UNL     1       7.400   3.674   2.792  1.00  0.00    +0.000 OA
ATOM     34  H   UNL     1       7.705   4.544   2.485  1.00  0.00    +0.000 HD
ENDBRANCH  29  33
ENDBRANCH   1  32
BRANCH   7  35
ATOM     35  C   UNL     1      -3.261  -0.364  -0.993  1.00  0.00    +0.000 C 
ATOM     36  C   UNL     1      -4.291  -0.429   0.170  1.00  0.00    +0.000 C 
ATOM     37  C   UNL     1      -5.602   0.289  -0.202  1.00  0.00    +0.000 C 
ATOM     38  C   UNL     1      -6.065  -0.125  -1.609  1.00  0.00    +0.000 C 
ATOM     39  C   UNL     1      -4.929  -0.003  -2.653  1.00  0.00    +0.000 C 
ATOM     40  O   UNL     1      -3.721   0.490  -2.055  1.00  0.00    +0.000 OA
BRANCH  36  41
ATOM     41  O   UNL     1      -4.593  -1.813   0.447  1.00  0.00    +0.000 OA
ATOM     42  H   UNL     1      -5.031  -1.836   1.318  1.00  0.00    +0.000 HD
ENDBRANCH  36  41
BRANCH  37  43
ATOM     43  O   UNL     1      -5.478   1.709  -0.113  1.00  0.00    +0.000 OA
ATOM     44  H   UNL     1      -4.587   1.951  -0.449  1.00  0.00    +0.000 HD
ENDBRANCH  37  43
BRANCH  38  45
ATOM     45  O   UNL     1      -6.548  -1.479  -1.596  1.00  0.00    +0.000 OA
ATOM     46  H   UNL     1      -5.884  -2.025  -1.125  1.00  0.00    +0.000 HD
ENDBRANCH  38  45
BRANCH  39  47
ATOM     47  C   UNL     1      -5.318   0.955  -3.789  1.00  0.00    +0.000 C 
BRANCH  47  48
ATOM     48  O   UNL     1      -6.313   0.405  -4.648  1.00  0.00    +0.000 OA
ATOM     49  H   UNL     1      -7.042   0.064  -4.101  1.00  0.00    +0.000 HD
ENDBRANCH  47  48
ENDBRANCH  39  47
ENDBRANCH   7  35
BRANCH   6  50
ATOM     50  O   UNL     1      -2.802   2.281  -0.031  1.00  0.00    +0.000 OA
ATOM     51  H   UNL     1      -2.506   3.177   0.259  1.00  0.00    +0.000 HD
ENDBRANCH   6  50
BRANCH   8  52
ATOM     52  O   UNL     1      -0.958  -1.997  -1.012  1.00  0.00    +0.000 OA
ATOM     53  H   UNL     1      -0.098  -2.311  -1.356  1.00  0.00    +0.000 HD
ENDBRANCH   8  52
TORSDOF 16
