REMARK  Name = SANCDB_00765_minRM1.pdb
AUTHORGENERATED BY OPEN BABEL 2.3.2
REMARK  12 active torsions:
REMARK  status: ('A' for Active; 'I' for Inactive)
REMARK    1  A    between atoms: C_1  and  C_2
REMARK    2  A    between atoms: C_2  and  C_3
REMARK    3  A    between atoms: C_4  and  C_5
REMARK    4  A    between atoms: C_5  and  C_6
REMARK    5  A    between atoms: C_7  and  C_8
REMARK    6  A    between atoms: C_8  and  C_9
REMARK    7  A    between atoms: C_9  and  C_10
REMARK    8  A    between atoms: C_10  and  C_11
REMARK    9  A    between atoms: C_12  and  C_13
REMARK   10  A    between atoms: C_14  and  C_15
REMARK   11  A    between atoms: C_15  and  N_16
REMARK   12  A    between atoms: C_15  and  C_17
REMARK                            x       y       z     vdW  Elec       q    Type
REMARK                         _______ _______ _______ _____ _____    ______ ____
ROOT
ATOM      1  C   UNL     1       0.830   1.025  -0.995  1.00  0.00    +0.000 C 
ENDROOT
BRANCH   1   2
ATOM      2  C   UNL     1       2.268   0.748  -1.354  1.00  0.00    +0.000 C 
ATOM      3  C   UNL     1       3.234   0.286  -0.545  1.00  0.00    +0.000 C 
BRANCH   3   4
ATOM      4  C   UNL     1       4.587   0.055  -0.999  1.00  0.00    +0.000 C 
ATOM      5  C   UNL     1       5.557  -0.409  -0.195  1.00  0.00    +0.000 C 
BRANCH   5   6
ATOM      6  C   UNL     1       6.971  -0.647  -0.644  1.00  0.00    +0.000 C 
ATOM      7  C   UNL     1       7.949   0.200   0.166  1.00  0.00    +0.000 C 
BRANCH   6   8
ATOM      8  N   UNL     1       7.300  -2.060  -0.488  1.00  0.00    +0.000 NA
ATOM      9  H   UNL     1       6.612  -2.617  -0.993  1.00  0.00    +0.000 HD
ATOM     10  H   UNL     1       7.227  -2.326   0.492  1.00  0.00    +0.000 HD
ENDBRANCH   6   8
ENDBRANCH   5   6
ENDBRANCH   3   4
ENDBRANCH   1   2
BRANCH   1  11
ATOM     11  C   UNL     1       0.431   0.800   0.469  1.00  0.00    +0.000 C 
BRANCH  11  12
ATOM     12  C   UNL     1      -1.022   1.190   0.767  1.00  0.00    +0.000 C 
BRANCH  12  14
ATOM     13  C   UNL     1      -2.841  -0.541   0.746  1.00  0.00    +0.000 C 
ATOM     14  C   UNL     1      -2.030   0.305   0.090  1.00  0.00    +0.000 C 
BRANCH  13  15
ATOM     15  C   UNL     1      -3.856  -1.423   0.077  1.00  0.00    +0.000 C 
BRANCH  15  17
ATOM     16  C   UNL     1      -6.203  -0.613  -0.323  1.00  0.00    +0.000 C 
ATOM     17  C   UNL     1      -5.251  -1.070   0.507  1.00  0.00    +0.000 C 
BRANCH  16  19
ATOM     18  C   UNL     1      -7.902   1.204  -0.118  1.00  0.00    +0.000 C 
ATOM     19  C   UNL     1      -7.598  -0.269   0.110  1.00  0.00    +0.000 C 
ENDBRANCH  16  19
ENDBRANCH  15  17
ENDBRANCH  13  15
ENDBRANCH  12  14
ENDBRANCH  11  12
ENDBRANCH   1  11
TORSDOF 10
