REMARK  Name = /srv/my_project/app/compsite/backup/Dave/CORINA_stuff/newPDBs/SANC00557.pdb
AUTHORGENERATED BY OPEN BABEL 2.3.2
REMARK  1 active torsions:
REMARK  status: ('A' for Active; 'I' for Inactive)
REMARK    1  A    between atoms: C_1  and  C_2
REMARK                            x       y       z     vdW  Elec       q    Type
REMARK                         _______ _______ _______ _____ _____    ______ ____
ROOT
ATOM      1  C   UNL     1      -3.820  -0.040   0.700  1.00  0.00    +0.000 C 
ATOM      2  C   UNL     1      -2.420  -0.536   0.322  1.00  0.00    +0.000 C 
ATOM      3  C   UNL     1      -1.363   0.580   0.440  1.00  0.00    +0.000 C 
ATOM      4  C   UNL     1      -1.659   1.834  -0.383  1.00  0.00    +0.000 C 
ATOM      5  C   UNL     1      -0.409   2.586  -0.869  1.00  0.00    +0.000 C 
ATOM      6  C   UNL     1       0.536   3.118   0.217  1.00  0.00    +0.000 C 
ATOM      7  C   UNL     1       1.560   2.118   0.766  1.00  0.00    +0.000 C 
ATOM      8  C   UNL     1       2.627   1.677  -0.251  1.00  0.00    +0.000 C 
ATOM      9  C   UNL     1       3.139   0.258   0.030  1.00  0.00    +0.000 C 
ATOM     10  N   UNL     1       2.155  -0.722  -0.432  1.00  0.00    +0.000 NA
ATOM     11  C   UNL     1       2.232  -1.980   0.306  1.00  0.00    +0.000 C 
ATOM     12  C   UNL     1       1.247  -3.039  -0.215  1.00  0.00    +0.000 C 
ATOM     13  C   UNL     1      -0.236  -2.635  -0.208  1.00  0.00    +0.000 C 
ATOM     14  N   UNL     1      -0.687  -2.257   1.129  1.00  0.00    +0.000 NA
ATOM     15  C   UNL     1      -2.067  -1.771   1.191  1.00  0.00    +0.000 C 
ATOM     16  H   UNL     1       2.265  -0.881  -1.431  1.00  0.00    +0.000 HD
ATOM     17  H   UNL     1      -0.578  -3.047   1.764  1.00  0.00    +0.000 HD
ENDROOT
TORSDOF 0
