REMARK  Name = /srv/my_project/app/compsite/backup/Dave/CORINA_stuff/newPDBs/SANC00346.pdb
AUTHORGENERATED BY OPEN BABEL 2.3.2
REMARK  12 active torsions:
REMARK  status: ('A' for Active; 'I' for Inactive)
REMARK    1  A    between atoms: C_1  and  C_2
REMARK    2  A    between atoms: C_2  and  C_3
REMARK    3  A    between atoms: C_2  and  O_4
REMARK    4  A    between atoms: C_2  and  C_5
REMARK    5  A    between atoms: C_5  and  C_6
REMARK    6  A    between atoms: C_6  and  C_7
REMARK    7  A    between atoms: C_8  and  O_9
REMARK    8  A    between atoms: C_14  and  C_15
REMARK    9  A    between atoms: C_20  and  C_21
REMARK   10  A    between atoms: C_20  and  C_22
REMARK   11  A    between atoms: C_26  and  O_27
REMARK   12  A    between atoms: C_31  and  O_32
REMARK                            x       y       z     vdW  Elec       q    Type
REMARK                         _______ _______ _______ _____ _____    ______ ____
ROOT
ATOM      1  C   UNL     1       3.882   0.622  -1.218  1.00  0.00    +0.000 A 
ATOM      2  C   UNL     1       4.025   1.944  -0.762  1.00  0.00    +0.000 A 
ATOM      3  C   UNL     1       2.972   2.628  -0.155  1.00  0.00    +0.000 A 
ATOM      4  C   UNL     1       1.739   1.998  -0.009  1.00  0.00    +0.000 A 
ATOM      5  O   UNL     1       0.744   2.721   0.599  1.00  0.00    +0.000 OA
ATOM      6  C   UNL     1      -0.498   2.143   0.699  1.00  0.00    +0.000 A 
ATOM      7  C   UNL     1      -0.853   0.914   0.290  1.00  0.00    +0.000 A 
ATOM      8  C   UNL     1       0.230   0.079  -0.294  1.00  0.00    +0.000 A 
ATOM      9  O   UNL     1       0.051  -1.097  -0.606  1.00  0.00    +0.000 OA
ATOM     10  C   UNL     1       1.555   0.699  -0.471  1.00  0.00    +0.000 A 
ATOM     11  C   UNL     1       2.620   0.015  -1.080  1.00  0.00    +0.000 A 
ENDROOT
BRANCH   7  12
ATOM     12  C   UNL     1      -2.243   0.430   0.457  1.00  0.00    +0.000 A 
ATOM     13  C   UNL     1      -3.313   1.263   0.074  1.00  0.00    +0.000 A 
ATOM     14  C   UNL     1      -4.647   0.872   0.264  1.00  0.00    +0.000 A 
ATOM     15  C   UNL     1      -5.738   1.747  -0.133  1.00  0.00    +0.000 C 
ATOM     16  C   UNL     1      -6.987   1.323   0.080  1.00  0.00    +0.000 C 
ATOM     17  C   UNL     1      -7.318  -0.012   0.710  1.00  0.00    +0.000 C 
ATOM     18  C   UNL     1      -8.116   0.221   1.998  1.00  0.00    +0.000 C 
ATOM     19  C   UNL     1      -8.154  -0.841  -0.273  1.00  0.00    +0.000 C 
ATOM     20  O   UNL     1      -6.188  -0.832   1.073  1.00  0.00    +0.000 OA
ATOM     21  C   UNL     1      -4.927  -0.366   0.841  1.00  0.00    +0.000 A 
ATOM     22  C   UNL     1      -3.884  -1.212   1.210  1.00  0.00    +0.000 A 
ATOM     23  C   UNL     1      -2.561  -0.824   1.002  1.00  0.00    +0.000 A 
BRANCH  23  24
ATOM     24  O   UNL     1      -1.609  -1.737   1.366  1.00  0.00    +0.000 OA
ATOM     25  H   UNL     1      -0.952  -1.768   0.638  1.00  0.00    +0.000 HD
ENDBRANCH  23  24
ENDBRANCH   7  12
BRANCH   2  26
ATOM     26  O   UNL     1       5.223   2.580  -0.940  1.00  0.00    +0.000 OA
ATOM     27  H   UNL     1       5.160   3.494  -0.616  1.00  0.00    +0.000 HD
ENDBRANCH   2  26
BRANCH  11  28
ATOM     28  O   UNL     1       2.465  -1.260  -1.564  1.00  0.00    +0.000 OA
ATOM     29  H   UNL     1       1.551  -1.566  -1.379  1.00  0.00    +0.000 HD
ENDBRANCH  11  28
BRANCH   1  30
ATOM     30  C   UNL     1       5.039  -0.100  -1.882  1.00  0.00    +0.000 C 
BRANCH  30  31
ATOM     31  C   UNL     1       6.271  -0.359  -0.995  1.00  0.00    +0.000 C 
BRANCH  31  33
ATOM     32  C   UNL     1       7.602  -1.793   0.574  1.00  0.00    +0.000 C 
ATOM     33  C   UNL     1       6.255  -1.647  -0.146  1.00  0.00    +0.000 C 
ATOM     34  C   UNL     1       5.125  -1.681   0.884  1.00  0.00    +0.000 C 
BRANCH  33  35
ATOM     35  O   UNL     1       6.120  -2.768  -1.023  1.00  0.00    +0.000 OA
ATOM     36  H   UNL     1       5.991  -3.563  -0.479  1.00  0.00    +0.000 HD
ENDBRANCH  33  35
ENDBRANCH  31  33
ENDBRANCH  30  31
ENDBRANCH   1  30
TORSDOF 8
