REMARK  Name = SANCDB_00945_minRM1.pdb
AUTHORGENERATED BY OPEN BABEL 2.3.2
REMARK  4 active torsions:
REMARK  status: ('A' for Active; 'I' for Inactive)
REMARK    1  A    between atoms: C_3  and  O_20
REMARK    2  A    between atoms: C_6  and  C_7
REMARK    3  A    between atoms: C_12  and  O_19
REMARK    4  A    between atoms: C_14  and  O_18
REMARK                            x       y       z     vdW  Elec       q    Type
REMARK                         _______ _______ _______ _____ _____    ______ ____
ROOT
ATOM      1  C   UNL     1       0.467  -0.499  -0.043  1.00  0.00    +0.000 A 
ATOM      2  C   UNL     1      -0.113  -1.668   0.274  1.00  0.00    +0.000 A 
ATOM      3  O   UNL     1      -1.457  -1.908   0.423  1.00  0.00    +0.000 OA
ATOM      4  C   UNL     1      -2.319  -0.858   0.236  1.00  0.00    +0.000 A 
ATOM      5  C   UNL     1      -3.681  -1.120   0.385  1.00  0.00    +0.000 A 
ATOM      6  C   UNL     1      -4.600  -0.090   0.208  1.00  0.00    +0.000 A 
ATOM      7  C   UNL     1      -4.183   1.197  -0.116  1.00  0.00    +0.000 A 
ATOM      8  C   UNL     1      -2.821   1.452  -0.264  1.00  0.00    +0.000 A 
ATOM      9  C   UNL     1      -1.884   0.426  -0.088  1.00  0.00    +0.000 A 
ATOM     10  C   UNL     1      -0.439   0.666  -0.237  1.00  0.00    +0.000 A 
ATOM     11  O   UNL     1      -0.039   1.794  -0.511  1.00  0.00    +0.000 OA
ENDROOT
BRANCH   1  17
ATOM     12  C   UNL     1       2.626   0.632   0.509  1.00  0.00    +0.000 A 
ATOM     13  C   UNL     1       4.016   0.740   0.408  1.00  0.00    +0.000 A 
ATOM     14  C   UNL     1       4.719  -0.178  -0.364  1.00  0.00    +0.000 A 
ATOM     15  C   UNL     1       4.056  -1.195  -1.036  1.00  0.00    +0.000 A 
ATOM     16  C   UNL     1       2.666  -1.301  -0.937  1.00  0.00    +0.000 A 
ATOM     17  C   UNL     1       1.933  -0.391  -0.158  1.00  0.00    +0.000 A 
BRANCH  14  18
ATOM     18  O   UNL     1       6.074  -0.110  -0.491  1.00  0.00    +0.000 OA
ATOM     19  H   UNL     1       6.394   0.663   0.002  1.00  0.00    +0.000 HD
ENDBRANCH  14  18
ENDBRANCH   1  17
BRANCH   8  20
ATOM     20  O   UNL     1      -2.470   2.737  -0.583  1.00  0.00    +0.000 OA
ATOM     21  H   UNL     1      -1.488   2.773  -0.662  1.00  0.00    +0.000 HD
ENDBRANCH   8  20
BRANCH   6  22
ATOM     22  O   UNL     1      -5.922  -0.389   0.362  1.00  0.00    +0.000 OA
ATOM     23  H   UNL     1      -6.445   0.416   0.208  1.00  0.00    +0.000 HD
ENDBRANCH   6  22
TORSDOF 4
