REMARK  Name = SANCDB_00972_minRM1.pdb
AUTHORGENERATED BY OPEN BABEL 2.3.2
REMARK  3 active torsions:
REMARK  status: ('A' for Active; 'I' for Inactive)
REMARK    1  A    between atoms: C_1  and  C_2
REMARK    2  A    between atoms: C_8  and  C_10
REMARK    3  A    between atoms: N_15  and  C_16
REMARK                            x       y       z     vdW  Elec       q    Type
REMARK                         _______ _______ _______ _____ _____    ______ ____
ROOT
ATOM      1  C   UNL     1       4.795  -0.174  -1.190  1.00  0.00    +0.000 C 
ATOM      2  C   UNL     1       3.332  -0.536  -1.282  1.00  0.00    +0.000 C 
ATOM      3  O   UNL     1       2.939  -1.221  -2.228  1.00  0.00    +0.000 OA
ATOM      4  N   UNL     1       2.498  -0.062  -0.259  1.00  0.00    +0.000 N 
ATOM      5  C   UNL     1       2.995   0.774   0.839  1.00  0.00    +0.000 C 
ATOM      6  C   UNL     1       2.129   0.678   2.085  1.00  0.00    +0.000 C 
ATOM      7  C   UNL     1       0.673   0.969   1.748  1.00  0.00    +0.000 C 
ATOM      8  C   UNL     1       0.224   0.220   0.517  1.00  0.00    +0.000 C 
ATOM      9  C   UNL     1       1.123  -0.254  -0.367  1.00  0.00    +0.000 C 
ENDROOT
BRANCH   8  10
ATOM     10  C   UNL     1      -1.289   0.041   0.370  1.00  0.00    +0.000 C 
ATOM     11  C   UNL     1      -1.917   1.372  -0.093  1.00  0.00    +0.000 C 
ATOM     12  C   UNL     1      -3.443   1.295  -0.129  1.00  0.00    +0.000 C 
ATOM     13  C   UNL     1      -3.950  -0.096  -0.498  1.00  0.00    +0.000 C 
ATOM     14  C   UNL     1      -2.900  -0.879  -1.278  1.00  0.00    +0.000 C 
ATOM     15  N   UNL     1      -1.652  -1.076  -0.532  1.00  0.00    +0.000 NA
ATOM     16  C   UNL     1      -1.647  -2.356   0.179  1.00  0.00    +0.000 C 
ENDBRANCH   8  10
TORSDOF 1
