REMARK  Name = /srv/my_project/app/compsite/backup/Dave/CORINA_stuff/newPDBs/SANC00460.pdb
AUTHORGENERATED BY OPEN BABEL 2.3.2
REMARK  7 active torsions:
REMARK  status: ('A' for Active; 'I' for Inactive)
REMARK    1  A    between atoms: C_7  and  O_9
REMARK    2  A    between atoms: C_12  and  C_13
REMARK    3  A    between atoms: C_17  and  O_19
REMARK    4  A    between atoms: C_20  and  C_21
REMARK    5  A    between atoms: C_22  and  C_24
REMARK    6  A    between atoms: C_24  and  C_25
REMARK    7  A    between atoms: C_29  and  O_30
REMARK                            x       y       z     vdW  Elec       q    Type
REMARK                         _______ _______ _______ _____ _____    ______ ____
ROOT
ATOM      1  C   UNL     1       0.002  -0.497   1.091  1.00  0.00    +0.000 C 
ATOM      2  C   UNL     1       0.869  -0.182   2.328  1.00  0.00    +0.000 C 
ATOM      3  C   UNL     1       2.341  -0.306   2.103  1.00  0.00    +0.000 C 
ATOM      4  C   UNL     1       2.923  -0.415   0.898  1.00  0.00    +0.000 C 
ATOM      5  C   UNL     1       4.427  -0.551   0.789  1.00  0.00    +0.000 C 
ATOM      6  C   UNL     1       5.027   0.444  -0.205  1.00  0.00    +0.000 C 
ATOM      7  C   UNL     1       4.330   0.351  -1.558  1.00  0.00    +0.000 C 
ATOM      8  C   UNL     1       2.822   0.557  -1.421  1.00  0.00    +0.000 C 
ATOM      9  C   UNL     1       2.127  -0.408  -0.412  1.00  0.00    +0.000 C 
ATOM     10  C   UNL     1       2.146  -1.847  -0.984  1.00  0.00    +0.000 C 
ATOM     11  C   UNL     1       0.644   0.105  -0.181  1.00  0.00    +0.000 C 
ATOM     12  C   UNL     1      -0.266  -0.125  -1.398  1.00  0.00    +0.000 C 
ATOM     13  C   UNL     1      -1.682   0.410  -1.187  1.00  0.00    +0.000 C 
ATOM     14  C   UNL     1      -2.392  -0.206   0.050  1.00  0.00    +0.000 C 
ATOM     15  C   UNL     1      -2.789  -1.676  -0.221  1.00  0.00    +0.000 C 
ATOM     16  C   UNL     1      -3.663   0.611   0.469  1.00  0.00    +0.000 C 
ATOM     17  C   UNL     1      -3.207   1.575   1.586  1.00  0.00    +0.000 C 
ATOM     18  C   UNL     1      -1.704   1.375   1.741  1.00  0.00    +0.000 C 
ATOM     19  C   UNL     1      -1.479  -0.082   1.312  1.00  0.00    +0.000 C 
ENDROOT
BRANCH  16  20
ATOM     20  C   UNL     1      -4.380   1.369  -0.650  1.00  0.00    +0.000 C 
ATOM     21  C   UNL     1      -5.449   0.624  -1.408  1.00  0.00    +0.000 C 
ATOM     22  O   UNL     1      -4.128   2.547  -0.909  1.00  0.00    +0.000 OA
ENDBRANCH  16  20
BRANCH   6  23
ATOM     23  O   UNL     1       6.413   0.172  -0.393  1.00  0.00    +0.000 OA
ATOM     24  H   UNL     1       6.853   0.286   0.467  1.00  0.00    +0.000 HD
ENDBRANCH   6  23
BRANCH  13  25
ATOM     25  O   UNL     1      -2.437   0.166  -2.376  1.00  0.00    +0.000 OA
ATOM     26  H   UNL     1      -2.181  -0.698  -2.743  1.00  0.00    +0.000 HD
ENDBRANCH  13  25
BRANCH  19  27
ATOM     27  O   UNL     1      -2.021  -0.920   2.349  1.00  0.00    +0.000 OA
ATOM     28  H   UNL     1      -1.635  -0.653   3.201  1.00  0.00    +0.000 HD
ENDBRANCH  19  27
TORSDOF 4
