REMARK  Name = /srv/my_project/app/compsite/backup/Dave/CORINA_stuff/newPDBs/SANC00138.pdb
AUTHORGENERATED BY OPEN BABEL 2.3.2
REMARK  3 active torsions:
REMARK  status: ('A' for Active; 'I' for Inactive)
REMARK    1  A    between atoms: N_10  and  O_11
REMARK    2  A    between atoms: C_15  and  C_16
REMARK    3  A    between atoms: C_19  and  O_20
REMARK                            x       y       z     vdW  Elec       q    Type
REMARK                         _______ _______ _______ _____ _____    ______ ____
ROOT
ATOM      1  O   UNL     1      -1.876  -3.872   1.801  1.00  0.00    +0.000 OA
ATOM      2  C   UNL     1      -1.605  -2.859   1.176  1.00  0.00    +0.000 C 
ATOM      3  C   UNL     1      -2.503  -2.168   0.275  1.00  0.00    +0.000 A 
ATOM      4  N   UNL     1      -3.830  -2.445   0.054  1.00  0.00    +0.000 N 
ATOM      5  H   UNL     1      -4.335  -3.228   0.457  1.00  0.00    +0.000 HD
ATOM      6  C   UNL     1      -4.390  -1.405  -0.659  1.00  0.00    +0.000 A 
ATOM      7  C   UNL     1      -3.397  -0.494  -0.950  1.00  0.00    +0.000 A 
ATOM      8  C   UNL     1      -3.470   0.876  -1.526  1.00  0.00    +0.000 C 
ATOM      9  C   UNL     1      -2.075   1.532  -1.627  1.00  0.00    +0.000 C 
ATOM     10  N   UNL     1      -1.138   1.123  -0.476  1.00  0.00    +0.000 N 
ATOM     11  C   UNL     1      -0.832  -0.376  -0.540  1.00  0.00    +0.000 C 
ATOM     12  C   UNL     1      -2.187  -1.042  -0.467  1.00  0.00    +0.000 A 
ATOM     13  C   UNL     1       0.050  -0.997   0.531  1.00  0.00    +0.000 A 
ATOM     14  C   UNL     1       1.402  -0.727   0.913  1.00  0.00    +0.000 A 
ATOM     15  C   UNL     1       1.737  -1.628   1.906  1.00  0.00    +0.000 A 
ATOM     16  N   UNL     1       0.678  -2.471   2.115  1.00  0.00    +0.000 N 
ATOM     17  H   UNL     1       0.661  -3.259   2.756  1.00  0.00    +0.000 HD
ATOM     18  C   UNL     1      -0.345  -2.127   1.270  1.00  0.00    +0.000 A 
ATOM     19  H   UNL     1      -1.624   1.293   0.416  1.00  0.00    +0.000 HD
ENDROOT
BRANCH  14  20
ATOM     20  C   UNL     1       2.374   0.216   0.393  1.00  0.00    +0.000 A 
ATOM     21  C   UNL     1       2.683   0.225  -0.972  1.00  0.00    +0.000 A 
ATOM     22  C   UNL     1       3.579   1.167  -1.478  1.00  0.00    +0.000 A 
ATOM     23  C   UNL     1       4.175   2.085  -0.620  1.00  0.00    +0.000 A 
ATOM     24  C   UNL     1       3.895   2.076   0.742  1.00  0.00    +0.000 A 
ATOM     25  C   UNL     1       2.993   1.138   1.250  1.00  0.00    +0.000 A 
BRANCH  23  26
ATOM     26  O   UNL     1       5.040   2.984  -1.164  1.00  0.00    +0.000 OA
ATOM     27  H   UNL     1       5.502   3.461  -0.454  1.00  0.00    +0.000 HD
ENDBRANCH  23  26
ENDBRANCH  14  20
BRANCH  10  28
ATOM     28  O   UNL     1       0.057   1.937  -0.581  1.00  0.00    +0.000 OA
ATOM     29  H   UNL     1       0.489   1.920   0.298  1.00  0.00    +0.000 HD
ENDBRANCH  10  28
TORSDOF 3
