REMARK  Name = /srv/my_project/app/compsite/backup/Dave/CORINA_stuff/newPDBs/SANC00449.pdb
AUTHORGENERATED BY OPEN BABEL 2.3.2
REMARK  15 active torsions:
REMARK  status: ('A' for Active; 'I' for Inactive)
REMARK    1  A    between atoms: C_1  and  C_2
REMARK    2  A    between atoms: C_5  and  O_6
REMARK    3  A    between atoms: C_17  and  C_18
REMARK    4  A    between atoms: C_29  and  C_30
REMARK    5  A    between atoms: C_29  and  C_31
REMARK    6  A    between atoms: C_31  and  O_32
REMARK    7  A    between atoms: C_34  and  O_35
REMARK    8  A    between atoms: C_36  and  C_37
REMARK    9  A    between atoms: C_38  and  O_39
REMARK   10  A    between atoms: C_40  and  C_41
REMARK   11  A    between atoms: C_42  and  O_43
REMARK   12  A    between atoms: C_51  and  C_52
REMARK   13  A    between atoms: C_59  and  C_60
REMARK   14  A    between atoms: C_59  and  C_61
REMARK   15  A    between atoms: C_63  and  O_64
REMARK                            x       y       z     vdW  Elec       q    Type
REMARK                         _______ _______ _______ _____ _____    ______ ____
ROOT
ATOM      1  C   UNL     1      10.690   1.803  -1.350  1.00  0.00    +0.000 C 
ATOM      2  C   UNL     1      10.515   0.515  -0.527  1.00  0.00    +0.000 C 
ATOM      3  C   UNL     1       9.870   0.733   0.843  1.00  0.00    +0.000 C 
ATOM      4  C   UNL     1      10.224   1.942   1.710  1.00  0.00    +0.000 C 
ATOM      5  C   UNL     1       8.966   2.192   2.583  1.00  0.00    +0.000 C 
ATOM      6  C   UNL     1       7.859   1.770   1.646  1.00  0.00    +0.000 A 
ATOM      7  C   UNL     1       6.486   2.029   1.662  1.00  0.00    +0.000 A 
ATOM      8  C   UNL     1       5.882   2.778   2.824  1.00  0.00    +0.000 C 
ATOM      9  C   UNL     1       4.438   3.216   2.616  1.00  0.00    +0.000 C 
ATOM     10  C   UNL     1       3.632   2.095   1.964  1.00  0.00    +0.000 C 
ATOM     11  C   UNL     1       2.136   2.433   1.951  1.00  0.00    +0.000 C 
ATOM     12  C   UNL     1       1.321   1.429   1.189  1.00  0.00    +0.000 A 
ATOM     13  N   UNL     1      -0.020   1.460   1.391  1.00  0.00    +0.000 NA
ATOM     14  C   UNL     1      -0.764   0.581   0.675  1.00  0.00    +0.000 A 
ATOM     15  C   UNL     1      -2.253   0.596   0.933  1.00  0.00    +0.000 C 
ATOM     16  C   UNL     1      -3.102  -0.073  -0.185  1.00  0.00    +0.000 C 
ATOM     17  C   UNL     1      -3.089   0.863  -1.427  1.00  0.00    +0.000 C 
ATOM     18  C   UNL     1      -2.412  -1.447  -0.458  1.00  0.00    +0.000 C 
ATOM     19  C   UNL     1      -3.284  -2.365  -1.306  1.00  0.00    +0.000 C 
ATOM     20  C   UNL     1      -4.609  -2.686  -0.605  1.00  0.00    +0.000 C 
ATOM     21  C   UNL     1      -4.956  -1.749   0.578  1.00  0.00    +0.000 C 
ATOM     22  C   UNL     1      -6.390  -1.895   1.039  1.00  0.00    +0.000 C 
ATOM     23  C   UNL     1      -7.291  -2.827   0.705  1.00  0.00    +0.000 C 
ATOM     24  C   UNL     1      -8.643  -2.567   1.278  1.00  0.00    +0.000 C 
ATOM     25  O   UNL     1      -9.548  -2.420   0.177  1.00  0.00    +0.000 OA
ATOM     26  C   UNL     1      -9.668  -1.017  -0.093  1.00  0.00    +0.000 C 
ATOM     27  O   UNL     1      -8.568  -0.553  -0.906  1.00  0.00    +0.000 OA
ATOM     28  C   UNL     1      -9.083   0.168  -2.046  1.00  0.00    +0.000 C 
ATOM     29  C   UNL     1      -8.331   1.496  -2.154  1.00  0.00    +0.000 C 
ATOM     30  C   UNL     1     -10.568   0.415  -1.756  1.00  0.00    +0.000 C 
ATOM     31  C   UNL     1     -10.936  -0.795  -0.940  1.00  0.00    +0.000 C 
ATOM     32  C   UNL     1      -9.559  -0.320   1.272  1.00  0.00    +0.000 C 
ATOM     33  C   UNL     1     -10.911  -0.222   1.998  1.00  0.00    +0.000 C 
ATOM     34  C   UNL     1      -8.536  -1.214   2.034  1.00  0.00    +0.000 C 
ATOM     35  C   UNL     1      -6.978  -0.882   2.008  1.00  0.00    +0.000 C 
ATOM     36  C   UNL     1      -6.331  -1.157   3.396  1.00  0.00    +0.000 C 
ATOM     37  C   UNL     1      -6.641   0.547   1.527  1.00  0.00    +0.000 C 
ATOM     38  C   UNL     1      -5.145   0.734   1.241  1.00  0.00    +0.000 C 
ATOM     39  C   UNL     1      -4.626  -0.280   0.198  1.00  0.00    +0.000 C 
ATOM     40  C   UNL     1      -1.001  -1.278  -1.034  1.00  0.00    +0.000 C 
ATOM     41  C   UNL     1      -0.176  -0.319  -0.217  1.00  0.00    +0.000 A 
ATOM     42  N   UNL     1       1.163  -0.340  -0.427  1.00  0.00    +0.000 NA
ATOM     43  C   UNL     1       1.906   0.547   0.282  1.00  0.00    +0.000 A 
ATOM     44  C   UNL     1       3.397   0.490   0.072  1.00  0.00    +0.000 C 
ATOM     45  C   UNL     1       4.172   1.756   0.542  1.00  0.00    +0.000 C 
ATOM     46  C   UNL     1       3.949   2.901  -0.479  1.00  0.00    +0.000 C 
ATOM     47  C   UNL     1       5.695   1.507   0.600  1.00  0.00    +0.000 A 
ATOM     48  C   UNL     1       6.328   0.793  -0.457  1.00  0.00    +0.000 A 
ATOM     49  C   UNL     1       7.687   0.519  -0.431  1.00  0.00    +0.000 A 
ATOM     50  O   UNL     1       8.267  -0.130  -1.480  1.00  0.00    +0.000 OA
ATOM     51  C   UNL     1       9.648  -0.541  -1.286  1.00  0.00    +0.000 C 
ATOM     52  O   UNL     1      10.232  -0.742  -2.596  1.00  0.00    +0.000 OA
ATOM     53  C   UNL     1      10.078  -2.117  -2.985  1.00  0.00    +0.000 C 
ATOM     54  C   UNL     1      11.478  -2.682  -3.236  1.00  0.00    +0.000 C 
ATOM     55  C   UNL     1       9.263  -2.163  -4.277  1.00  0.00    +0.000 C 
ATOM     56  C   UNL     1       9.360  -2.839  -1.842  1.00  0.00    +0.000 C 
ATOM     57  C   UNL     1       9.634  -1.954  -0.643  1.00  0.00    +0.000 C 
ATOM     58  C   UNL     1       8.412   0.978   0.639  1.00  0.00    +0.000 A 
ENDROOT
BRANCH   5  59
ATOM     59  O   UNL     1       8.921   3.563   2.935  1.00  0.00    +0.000 OA
ATOM     60  H   UNL     1       8.572   4.042   2.164  1.00  0.00    +0.000 HD
ENDBRANCH   5  59
BRANCH  31  61
ATOM     61  O   UNL     1     -11.165  -1.891  -1.842  1.00  0.00    +0.000 OA
ATOM     62  H   UNL     1     -10.809  -2.678  -1.376  1.00  0.00    +0.000 HD
ENDBRANCH  31  61
BRANCH  34  63
ATOM     63  O   UNL     1      -8.977  -1.398   3.391  1.00  0.00    +0.000 OA
ATOM     64  H   UNL     1      -8.842  -0.546   3.847  1.00  0.00    +0.000 HD
ENDBRANCH  34  63
BRANCH  37  65
ATOM     65  O   UNL     1      -7.070   1.499   2.503  1.00  0.00    +0.000 OA
ATOM     66  H   UNL     1      -6.771   2.377   2.206  1.00  0.00    +0.000 HD
ENDBRANCH  37  65
BRANCH  57  67
ATOM     67  O   UNL     1      10.880  -2.322  -0.048  1.00  0.00    +0.000 OA
ATOM     68  H   UNL     1      10.796  -3.241   0.261  1.00  0.00    +0.000 HD
ENDBRANCH  57  67
BRANCH  28  69
ATOM     69  C   UNL     1      -8.810  -0.687  -3.304  1.00  0.00    +0.000 C 
BRANCH  69  70
ATOM     70  O   UNL     1      -9.462  -0.174  -4.459  1.00  0.00    +0.000 OA
ATOM     71  H   UNL     1     -10.357  -0.563  -4.460  1.00  0.00    +0.000 HD
ENDBRANCH  69  70
ENDBRANCH  28  69
TORSDOF 7
