REMARK  Name = /srv/my_project/app/compsite/backup/Dave/CORINA_stuff/newPDBs/SANC00690.pdb
AUTHORGENERATED BY OPEN BABEL 2.3.2
REMARK  5 active torsions:
REMARK  status: ('A' for Active; 'I' for Inactive)
REMARK    1  A    between atoms: C_8  and  C_9
REMARK    2  A    between atoms: C_14  and  C_15
REMARK    3  A    between atoms: C_18  and  O_20
REMARK    4  A    between atoms: C_21  and  C_22
REMARK    5  A    between atoms: C_21  and  C_23
REMARK                            x       y       z     vdW  Elec       q    Type
REMARK                         _______ _______ _______ _____ _____    ______ ____
ROOT
ATOM      1  C   UNL     1      -1.433  -0.452  -0.284  1.00  0.00    +0.000 C 
ATOM      2  C   UNL     1      -0.843  -0.969  -1.615  1.00  0.00    +0.000 C 
ATOM      3  C   UNL     1       0.512  -1.641  -1.398  1.00  0.00    +0.000 C 
ATOM      4  C   UNL     1       1.521  -0.770  -0.646  1.00  0.00    +0.000 C 
ATOM      5  C   UNL     1       2.273   0.211  -1.525  1.00  0.00    +0.000 C 
ATOM      6  C   UNL     1       3.538   0.348  -1.096  1.00  0.00    +0.000 C 
ATOM      7  C   UNL     1       3.776  -0.545   0.099  1.00  0.00    +0.000 C 
ATOM      8  C   UNL     1       5.186  -1.119   0.154  1.00  0.00    +0.000 C 
ATOM      9  C   UNL     1       3.383   0.163   1.414  1.00  0.00    +0.000 C 
ATOM     10  C   UNL     1       1.967   0.779   1.379  1.00  0.00    +0.000 C 
ATOM     11  C   UNL     1       0.912  -0.090   0.627  1.00  0.00    +0.000 C 
ATOM     12  C   UNL     1      -0.483   0.621   0.374  1.00  0.00    +0.000 C 
ATOM     13  C   UNL     1      -0.313   1.895  -0.489  1.00  0.00    +0.000 C 
ATOM     14  C   UNL     1      -1.083   1.048   1.741  1.00  0.00    +0.000 C 
ATOM     15  C   UNL     1      -2.546   1.473   1.668  1.00  0.00    +0.000 C 
ATOM     16  C   UNL     1      -3.427   0.382   1.066  1.00  0.00    +0.000 C 
ATOM     17  C   UNL     1      -2.966  -0.093  -0.342  1.00  0.00    +0.000 C 
ATOM     18  C   UNL     1      -3.334   0.933  -1.434  1.00  0.00    +0.000 C 
ATOM     19  C   UNL     1      -3.783  -1.375  -0.677  1.00  0.00    +0.000 C 
ATOM     20  C   UNL     1       2.726  -1.625  -0.192  1.00  0.00    +0.000 C 
ENDROOT
BRANCH  16  21
ATOM     21  O   UNL     1      -4.774   0.854   1.019  1.00  0.00    +0.000 OA
ATOM     22  H   UNL     1      -5.032   1.099   1.923  1.00  0.00    +0.000 HD
ENDBRANCH  16  21
TORSDOF 1
