REMARK  Name = /srv/my_project/app/compsite/backup/Dave/CORINA_stuff/newPDBs/SANC00137.pdb
AUTHORGENERATED BY OPEN BABEL 2.3.2
REMARK  3 active torsions:
REMARK  status: ('A' for Active; 'I' for Inactive)
REMARK    1  A    between atoms: C_1  and  N_2
REMARK    2  A    between atoms: C_10  and  C_11
REMARK    3  A    between atoms: C_14  and  O_15
REMARK                            x       y       z     vdW  Elec       q    Type
REMARK                         _______ _______ _______ _____ _____    ______ ____
ROOT
ATOM      1  C   UNL     1      -5.278  -0.631  -0.443  1.00  0.00    +0.000 C 
ATOM      2  N   UNL     1      -4.047   0.070  -0.150  1.00  0.00    +0.000 N 
ATOM      3  C   UNL     1      -3.967   1.352   0.367  1.00  0.00    +0.000 A 
ATOM      4  C   UNL     1      -2.634   1.659   0.528  1.00  0.00    +0.000 A 
ATOM      5  C   UNL     1      -1.871   2.797   1.091  1.00  0.00    +0.000 C 
ATOM      6  C   UNL     1      -0.426   2.806   0.521  1.00  0.00    +0.000 C 
ATOM      7  N   UNL     1       0.254   1.483   0.362  1.00  0.00    +0.000 NA
ATOM      8  C   UNL     1      -0.477   0.460   0.079  1.00  0.00    +0.000 C 
ATOM      9  C   UNL     1       0.011  -0.868  -0.268  1.00  0.00    +0.000 A 
ATOM     10  C   UNL     1       1.316  -1.441  -0.323  1.00  0.00    +0.000 A 
ATOM     11  C   UNL     1       1.159  -2.757  -0.726  1.00  0.00    +0.000 A 
ATOM     12  N   UNL     1      -0.173  -3.005  -0.921  1.00  0.00    +0.000 N 
ATOM     13  H   UNL     1      -0.578  -3.885  -1.220  1.00  0.00    +0.000 HD
ATOM     14  C   UNL     1      -0.894  -1.874  -0.644  1.00  0.00    +0.000 A 
ATOM     15  C   UNL     1      -2.349  -1.767  -0.729  1.00  0.00    +0.000 C 
ATOM     16  O   UNL     1      -3.087  -2.675  -1.093  1.00  0.00    +0.000 OA
ATOM     17  C   UNL     1      -2.781  -0.450  -0.302  1.00  0.00    +0.000 A 
ATOM     18  C   UNL     1      -1.913   0.554   0.073  1.00  0.00    +0.000 A 
ENDROOT
BRANCH  10  19
ATOM     19  C   UNL     1       2.625  -0.869  -0.053  1.00  0.00    +0.000 A 
ATOM     20  C   UNL     1       3.512  -1.510   0.824  1.00  0.00    +0.000 A 
ATOM     21  C   UNL     1       4.775  -0.968   1.073  1.00  0.00    +0.000 A 
ATOM     22  C   UNL     1       5.151   0.214   0.448  1.00  0.00    +0.000 A 
ATOM     23  C   UNL     1       4.287   0.865  -0.426  1.00  0.00    +0.000 A 
ATOM     24  C   UNL     1       3.024   0.319  -0.677  1.00  0.00    +0.000 A 
BRANCH  22  25
ATOM     25  O   UNL     1       6.391   0.712   0.721  1.00  0.00    +0.000 OA
ATOM     26  H   UNL     1       6.497   1.549   0.241  1.00  0.00    +0.000 HD
ENDBRANCH  22  25
ENDBRANCH  10  19
TORSDOF 2
