REMARK  Name = /srv/my_project/app/compsite/backup/Dave/CORINA_stuff/newPDBs/SANC00517.pdb
AUTHORGENERATED BY OPEN BABEL 2.3.2
REMARK  7 active torsions:
REMARK  status: ('A' for Active; 'I' for Inactive)
REMARK    1  A    between atoms: C_1  and  C_2
REMARK    2  A    between atoms: C_4  and  O_5
REMARK    3  A    between atoms: C_12  and  C_14
REMARK    4  A    between atoms: C_15  and  C_16
REMARK    5  A    between atoms: C_24  and  O_25
REMARK    6  A    between atoms: C_26  and  O_27
REMARK    7  A    between atoms: C_28  and  O_30
REMARK                            x       y       z     vdW  Elec       q    Type
REMARK                         _______ _______ _______ _____ _____    ______ ____
ROOT
ATOM      1  C   UNL     1       7.048  -0.933   0.675  1.00  0.00    +0.000 C 
ATOM      2  C   UNL     1       5.605  -0.656   0.374  1.00  0.00    +0.000 A 
ATOM      3  C   UNL     1       5.243   0.396  -0.476  1.00  0.00    +0.000 A 
ATOM      4  C   UNL     1       3.899   0.624  -0.781  1.00  0.00    +0.000 A 
ATOM      5  C   UNL     1       2.888  -0.187  -0.258  1.00  0.00    +0.000 A 
ATOM      6  C   UNL     1       3.254  -1.247   0.592  1.00  0.00    +0.000 A 
ATOM      7  C   UNL     1       4.603  -1.481   0.897  1.00  0.00    +0.000 A 
ATOM      8  C   UNL     1       2.215  -2.126   1.207  1.00  0.00    +0.000 C 
ATOM      9  O   UNL     1       2.551  -3.104   1.871  1.00  0.00    +0.000 OA
ATOM     10  C   UNL     1       0.750  -1.789   0.998  1.00  0.00    +0.000 C 
ATOM     11  C   UNL     1       0.576  -0.315   0.619  1.00  0.00    +0.000 C 
ATOM     12  C   UNL     1       1.437   0.013  -0.624  1.00  0.00    +0.000 C 
ENDROOT
BRANCH  11  13
ATOM     13  C   UNL     1      -0.887   0.144   0.532  1.00  0.00    +0.000 A 
ATOM     14  C   UNL     1      -1.373   1.170   1.383  1.00  0.00    +0.000 A 
ATOM     15  C   UNL     1      -0.496   1.875   2.390  1.00  0.00    +0.000 C 
ATOM     16  C   UNL     1      -2.723   1.564   1.314  1.00  0.00    +0.000 A 
ATOM     17  C   UNL     1      -3.616   0.975   0.410  1.00  0.00    +0.000 A 
ATOM     18  C   UNL     1      -3.149  -0.035  -0.437  1.00  0.00    +0.000 A 
ATOM     19  C   UNL     1      -4.089  -0.683  -1.395  1.00  0.00    +0.000 C 
ATOM     20  O   UNL     1      -3.684  -1.611  -2.096  1.00  0.00    +0.000 OA
ATOM     21  C   UNL     1      -5.526  -0.220  -1.448  1.00  0.00    +0.000 C 
ATOM     22  C   UNL     1      -5.673   1.223  -0.990  1.00  0.00    +0.000 C 
ATOM     23  C   UNL     1      -5.056   1.416   0.389  1.00  0.00    +0.000 C 
ATOM     24  C   UNL     1      -1.798  -0.436  -0.377  1.00  0.00    +0.000 A 
BRANCH  23  25
ATOM     25  O   UNL     1      -5.796   0.663   1.343  1.00  0.00    +0.000 OA
ATOM     26  H   UNL     1      -5.214   0.463   2.096  1.00  0.00    +0.000 HD
ENDBRANCH  23  25
BRANCH  24  27
ATOM     27  O   UNL     1      -1.317  -1.405  -1.224  1.00  0.00    +0.000 OA
ATOM     28  H   UNL     1      -2.076  -1.784  -1.730  1.00  0.00    +0.000 HD
ENDBRANCH  24  27
ENDBRANCH  11  13
BRANCH   4  29
ATOM     29  O   UNL     1       3.559   1.667  -1.596  1.00  0.00    +0.000 OA
ATOM     30  H   UNL     1       4.361   1.996  -2.034  1.00  0.00    +0.000 HD
ENDBRANCH   4  29
BRANCH  12  31
ATOM     31  O   UNL     1       1.211  -0.870  -1.719  1.00  0.00    +0.000 OA
ATOM     32  H   UNL     1       0.246  -1.021  -1.772  1.00  0.00    +0.000 HD
ENDBRANCH  12  31
TORSDOF 5
