REMARK  Name = SANCDB01133.pdb
REMARK  4 active torsions:
REMARK  status: ('A' for Active; 'I' for Inactive)
REMARK    1  A    between atoms: C_1  and  N_2
REMARK    2  A    between atoms: C_4  and  O_5
REMARK    3  A    between atoms: C_7  and  C_8
REMARK    4  A    between atoms: C_8  and  O_9
REMARK                            x       y       z     vdW  Elec       q    Type
REMARK                         _______ _______ _______ _____ _____    ______ ____
ROOT
ATOM      1  C   UNL     1       0.363  -2.007   1.052  1.00  0.00    +0.000 C 
ATOM      2  N   UNL     1      -0.168  -0.968   0.179  1.00  0.00    +0.000 NA
ATOM      3  C   UNL     1      -1.426  -0.408   0.698  1.00  0.00    +0.000 C 
ATOM      4  C   UNL     1      -1.494   1.027   0.162  1.00  0.00    +0.000 C 
ATOM      5  C   UNL     1      -0.189   1.226  -0.593  1.00  0.00    +0.000 C 
ATOM      6  C   UNL     1       0.748   0.180   0.001  1.00  0.00    +0.000 C 
ENDROOT
BRANCH   4   7
ATOM      7  O   UNL     1      -2.612   1.224  -0.691  1.00  0.00    +0.000 OA
ATOM      8  H   UNL     1      -2.510   2.091  -1.118  1.00  0.00    +0.000 HD
ENDBRANCH   4   7
BRANCH   6   9
ATOM      9  C   UNL     1       1.911  -0.120  -0.945  1.00  0.00    +0.000 C 
ATOM     10  O   UNL     1       2.364  -1.204  -1.275  1.00  0.00    +0.000 OA
BRANCH   9  11
ATOM     11  O   UNL     1       2.522   1.007  -1.378  1.00  0.00    +0.000 OA
ATOM     12  H   UNL     1       3.242   0.661  -1.948  1.00  0.00    +0.000 HD
ENDBRANCH   9  11
ENDBRANCH   6   9
TORSDOF 3
