REMARK  Name = /srv/my_project/app/compsite/backup/Dave/CORINA_stuff/newPDBs/SANC00366.pdb
AUTHORGENERATED BY OPEN BABEL 2.3.2
REMARK  2 active torsions:
REMARK  status: ('A' for Active; 'I' for Inactive)
REMARK    1  A    between atoms: C_4  and  O_6
REMARK    2  A    between atoms: O_6  and  C_7
REMARK                            x       y       z     vdW  Elec       q    Type
REMARK                         _______ _______ _______ _____ _____    ______ ____
ROOT
ATOM      1  C   UNL     1       1.037  -0.781  -0.651  1.00  0.00    +0.000 C 
ATOM      2  C   UNL     1       2.557  -0.959  -0.517  1.00  0.00    +0.000 C 
ATOM      3  C   UNL     1       3.197   0.321   0.042  1.00  0.00    +0.000 C 
ATOM      4  C   UNL     1       2.435   0.860   1.225  1.00  0.00    +0.000 C 
ATOM      5  C   UNL     1       1.178   0.504   1.539  1.00  0.00    +0.000 C 
ATOM      6  C   UNL     1       0.349  -0.442   0.699  1.00  0.00    +0.000 C 
ATOM      7  C   UNL     1       0.250  -1.829   1.364  1.00  0.00    +0.000 C 
ATOM      8  C   UNL     1       0.204  -2.816   0.194  1.00  0.00    +0.000 C 
ATOM      9  N   UNL     1       0.342  -2.035  -1.055  1.00  0.00    +0.000 NA
ATOM     10  C   UNL     1      -0.999  -1.649  -1.566  1.00  0.00    +0.000 C 
ATOM     11  C   UNL     1      -1.742  -0.625  -0.720  1.00  0.00    +0.000 A 
ATOM     12  C   UNL     1      -3.064  -0.291  -1.055  1.00  0.00    +0.000 A 
ATOM     13  C   UNL     1      -3.703   0.658  -0.289  1.00  0.00    +0.000 A 
ATOM     14  O   UNL     1      -4.978   1.096  -0.470  1.00  0.00    +0.000 OA
ATOM     15  C   UNL     1      -5.085   2.062   0.596  1.00  0.00    +0.000 C 
ATOM     16  O   UNL     1      -3.889   2.172   1.395  1.00  0.00    +0.000 OA
ATOM     17  C   UNL     1      -3.081   1.272   0.771  1.00  0.00    +0.000 A 
ATOM     18  C   UNL     1      -1.782   0.976   1.133  1.00  0.00    +0.000 A 
ATOM     19  C   UNL     1      -1.085   0.020   0.377  1.00  0.00    +0.000 A 
ENDROOT
BRANCH   3  20
ATOM     20  O   UNL     1       3.201   1.311  -0.989  1.00  0.00    +0.000 OA
ATOM     21  C   UNL     1       4.258   2.252  -0.860  1.00  0.00    +0.000 C 
ENDBRANCH   3  20
TORSDOF 1
