REMARK  Name = /srv/my_project/app/compsite/backup/Dave/CORINA_stuff/newPDBs/SANC00443.pdb
AUTHORGENERATED BY OPEN BABEL 2.3.2
REMARK  7 active torsions:
REMARK  status: ('A' for Active; 'I' for Inactive)
REMARK    1  A    between atoms: C_1  and  C_2
REMARK    2  A    between atoms: C_2  and  C_3
REMARK    3  A    between atoms: C_2  and  C_4
REMARK    4  A    between atoms: C_5  and  O_26
REMARK    5  A    between atoms: C_6  and  O_25
REMARK    6  A    between atoms: C_19  and  C_20
REMARK    7  A    between atoms: C_19  and  C_21
REMARK                            x       y       z     vdW  Elec       q    Type
REMARK                         _______ _______ _______ _____ _____    ______ ____
ROOT
ATOM      1  C   UNL     1       3.116   0.193   0.067  1.00  0.00    +0.000 A 
ATOM      2  C   UNL     1       2.588  -0.403   1.225  1.00  0.00    +0.000 A 
ATOM      3  C   UNL     1       1.234  -0.776   1.315  1.00  0.00    +0.000 A 
ATOM      4  C   UNL     1       0.375  -0.572   0.252  1.00  0.00    +0.000 A 
ATOM      5  C   UNL     1       0.894   0.016  -0.919  1.00  0.00    +0.000 A 
ATOM      6  C   UNL     1       2.235   0.392  -1.016  1.00  0.00    +0.000 A 
ATOM      7  C   UNL     1      -0.125   0.155  -2.025  1.00  0.00    +0.000 C 
ATOM      8  C   UNL     1      -1.320   1.005  -1.566  1.00  0.00    +0.000 C 
ATOM      9  C   UNL     1      -1.808   0.502  -0.173  1.00  0.00    +0.000 C 
ATOM     10  C   UNL     1      -1.123  -0.892   0.112  1.00  0.00    +0.000 C 
ATOM     11  C   UNL     1      -1.790  -1.601   1.295  1.00  0.00    +0.000 C 
ATOM     12  C   UNL     1      -3.302  -1.792   1.138  1.00  0.00    +0.000 C 
ATOM     13  C   UNL     1      -3.968  -0.837   0.147  1.00  0.00    +0.000 C 
ATOM     14  C   UNL     1      -3.351   0.575   0.121  1.00  0.00    +0.000 C 
ATOM     15  C   UNL     1      -3.574   1.250   1.500  1.00  0.00    +0.000 C 
ATOM     16  C   UNL     1      -4.136   1.427  -0.898  1.00  0.00    +0.000 C 
ATOM     17  C   UNL     1      -1.224  -1.762  -1.178  1.00  0.00    +0.000 C 
ATOM     18  O   UNL     1      -1.743  -2.869  -1.255  1.00  0.00    +0.000 OA
ATOM     19  O   UNL     1      -0.648  -1.167  -2.275  1.00  0.00    +0.000 OA
ENDROOT
BRANCH   1  21
ATOM     20  C   UNL     1       5.537  -0.534  -0.166  1.00  0.00    +0.000 C 
ATOM     21  C   UNL     1       4.558   0.641  -0.120  1.00  0.00    +0.000 C 
ATOM     22  C   UNL     1       4.988   1.714   0.884  1.00  0.00    +0.000 C 
ENDBRANCH   1  21
BRANCH   3  23
ATOM     23  O   UNL     1       0.801  -1.345   2.478  1.00  0.00    +0.000 OA
ATOM     24  H   UNL     1       1.599  -1.381   3.045  1.00  0.00    +0.000 HD
ENDBRANCH   3  23
BRANCH   2  25
ATOM     25  O   UNL     1       3.322  -0.675   2.353  1.00  0.00    +0.000 OA
ATOM     26  H   UNL     1       4.258  -0.506   2.172  1.00  0.00    +0.000 HD
ENDBRANCH   2  25
TORSDOF 3
