REMARK  Name = SANCDB_01029_minRM1.pdb
AUTHORGENERATED BY OPEN BABEL 2.3.2
REMARK  12 active torsions:
REMARK  status: ('A' for Active; 'I' for Inactive)
REMARK    1  A    between atoms: C_1  and  C_2
REMARK    2  A    between atoms: C_3  and  O_44
REMARK    3  A    between atoms: C_4  and  O_42
REMARK    4  A    between atoms: C_5  and  O_41
REMARK    5  A    between atoms: C_11  and  C_40
REMARK    6  A    between atoms: C_13  and  O_39
REMARK    7  A    between atoms: C_16  and  C_38
REMARK    8  A    between atoms: C_17  and  C_31
REMARK    9  A    between atoms: C_20  and  O_30
REMARK   10  A    between atoms: C_21  and  O_29
REMARK   11  A    between atoms: C_23  and  O_28
REMARK   12  A    between atoms: O_42  and  C_43
REMARK                            x       y       z     vdW  Elec       q    Type
REMARK                         _______ _______ _______ _____ _____    ______ ____
ROOT
ATOM      1  C   UNL     1       6.987   0.660  -2.343  1.00  0.00    +0.000 C 
ATOM      2  C   UNL     1       6.009   0.574  -1.174  1.00  0.00    +0.000 C 
ATOM      3  C   UNL     1       6.603  -0.191   0.030  1.00  0.00    +0.000 C 
ATOM      4  C   UNL     1       5.573  -0.127   1.198  1.00  0.00    +0.000 C 
ATOM      5  C   UNL     1       5.384   1.369   1.569  1.00  0.00    +0.000 C 
ATOM      6  C   UNL     1       4.884   2.137   0.340  1.00  0.00    +0.000 C 
ATOM      7  O   UNL     1       5.633   1.915  -0.858  1.00  0.00    +0.000 OA
ATOM      8  O   UNL     1       3.466   2.092   0.179  1.00  0.00    +0.000 OA
ATOM      9  C   UNL     1       2.843   0.832  -0.076  1.00  0.00    +0.000 C 
ATOM     10  C   UNL     1       1.332   1.099  -0.139  1.00  0.00    +0.000 C 
ATOM     11  C   UNL     1       0.474  -0.157  -0.524  1.00  0.00    +0.000 C 
ATOM     12  C   UNL     1      -1.063   0.129  -0.193  1.00  0.00    +0.000 C 
ATOM     13  C   UNL     1      -1.745   1.123  -1.153  1.00  0.00    +0.000 C 
ATOM     14  C   UNL     1      -3.183   1.446  -0.735  1.00  0.00    +0.000 C 
ATOM     15  O   UNL     1      -3.565   2.622  -0.757  1.00  0.00    +0.000 OA
ATOM     16  C   UNL     1      -4.148   0.290  -0.444  1.00  0.00    +0.000 C 
ATOM     17  C   UNL     1      -5.277   0.798   0.544  1.00  0.00    +0.000 C 
ATOM     18  C   UNL     1      -5.002   0.120   1.903  1.00  0.00    +0.000 C 
ATOM     19  C   UNL     1      -3.554  -0.339   1.823  1.00  0.00    +0.000 C 
ATOM     20  C   UNL     1      -3.416  -0.817   0.370  1.00  0.00    +0.000 C 
ATOM     21  C   UNL     1      -1.954  -1.143  -0.087  1.00  0.00    +0.000 C 
ATOM     22  C   UNL     1      -1.308  -2.199   0.834  1.00  0.00    +0.000 C 
ATOM     23  C   UNL     1       0.098  -2.579   0.387  1.00  0.00    +0.000 C 
ATOM     24  C   UNL     1       0.979  -1.361   0.294  1.00  0.00    +0.000 C 
ATOM     25  C   UNL     1       2.148  -1.354   0.966  1.00  0.00    +0.000 C 
ATOM     26  C   UNL     1       3.139  -0.230   0.995  1.00  0.00    +0.000 C 
ATOM     27  O   UNL     1       4.406  -0.823   0.736  1.00  0.00    +0.000 OA
ATOM     28  C   UNL     1      -4.669  -0.151  -1.824  1.00  0.00    +0.000 C 
ATOM     29  C   UNL     1       0.713  -0.424  -2.030  1.00  0.00    +0.000 C 
ENDROOT
BRANCH  17  30
ATOM     30  C   UNL     1      -6.728   0.690   0.109  1.00  0.00    +0.000 A 
ATOM     31  C   UNL     1      -7.459   1.776  -0.178  1.00  0.00    +0.000 A 
ATOM     32  O   UNL     1      -8.805   1.740  -0.573  1.00  0.00    +0.000 OA
ATOM     33  C   UNL     1      -9.452   0.539  -0.679  1.00  0.00    +0.000 A 
ATOM     34  O   UNL     1     -10.628   0.447  -1.012  1.00  0.00    +0.000 OA
ATOM     35  C   UNL     1      -8.668  -0.672  -0.374  1.00  0.00    +0.000 A 
ATOM     36  C   UNL     1      -7.386  -0.591  -0.003  1.00  0.00    +0.000 A 
ENDBRANCH  17  30
BRANCH  23  37
ATOM     37  O   UNL     1       0.088  -3.268  -0.853  1.00  0.00    +0.000 OA
ATOM     38  H   UNL     1      -0.578  -2.833  -1.420  1.00  0.00    +0.000 HD
ENDBRANCH  23  37
BRANCH  21  39
ATOM     39  O   UNL     1      -2.069  -1.754  -1.387  1.00  0.00    +0.000 OA
ATOM     40  H   UNL     1      -2.864  -2.333  -1.345  1.00  0.00    +0.000 HD
ENDBRANCH  21  39
BRANCH  20  41
ATOM     41  O   UNL     1      -4.172  -2.043   0.216  1.00  0.00    +0.000 OA
ATOM     42  H   UNL     1      -4.062  -2.587   1.019  1.00  0.00    +0.000 HD
ENDBRANCH  20  41
BRANCH  13  43
ATOM     43  O   UNL     1      -1.043   2.365  -1.162  1.00  0.00    +0.000 OA
ATOM     44  H   UNL     1      -1.691   3.058  -1.407  1.00  0.00    +0.000 HD
ENDBRANCH  13  43
BRANCH   5  45
ATOM     45  O   UNL     1       6.599   1.978   2.068  1.00  0.00    +0.000 OA
ATOM     46  H   UNL     1       7.347   1.512   1.634  1.00  0.00    +0.000 HD
ENDBRANCH   5  45
BRANCH   4  47
ATOM     47  O   UNL     1       6.039  -0.773   2.400  1.00  0.00    +0.000 OA
ATOM     48  C   UNL     1       6.412  -2.133   2.258  1.00  0.00    +0.000 C 
ENDBRANCH   4  47
BRANCH   3  49
ATOM     49  O   UNL     1       7.869   0.363   0.432  1.00  0.00    +0.000 OA
ATOM     50  H   UNL     1       8.512   0.177  -0.276  1.00  0.00    +0.000 HD
ENDBRANCH   3  49
TORSDOF 8
