REMARK  Name = /srv/my_project/app/compsite/backup/Dave/CORINA_stuff/newPDBs/SANC00621.pdb
AUTHORGENERATED BY OPEN BABEL 2.3.2
REMARK  4 active torsions:
REMARK  status: ('A' for Active; 'I' for Inactive)
REMARK    1  A    between atoms: C_1  and  C_2
REMARK    2  A    between atoms: C_5  and  C_27
REMARK    3  A    between atoms: C_7  and  C_25
REMARK    4  A    between atoms: C_7  and  O_26
REMARK                            x       y       z     vdW  Elec       q    Type
REMARK                         _______ _______ _______ _____ _____    ______ ____
ROOT
ATOM      1  C   UNL     1       1.130   4.424   0.307  1.00  0.00    +0.000 C 
ATOM      2  C   UNL     1       1.605   3.102   0.824  1.00  0.00    +0.000 C 
ATOM      3  C   UNL     1       1.194   1.876   0.447  1.00  0.00    +0.000 C 
ATOM      4  C   UNL     1       1.722   0.608   1.078  1.00  0.00    +0.000 C 
ATOM      5  C   UNL     1       2.657  -0.176   0.118  1.00  0.00    +0.000 C 
ATOM      6  C   UNL     1       2.390  -1.706   0.182  1.00  0.00    +0.000 C 
ATOM      7  C   UNL     1       1.047  -2.005  -0.541  1.00  0.00    +0.000 C 
ATOM      8  O   UNL     1       0.861  -1.898  -1.746  1.00  0.00    +0.000 OA
ATOM      9  O   UNL     1       0.109  -2.403   0.366  1.00  0.00    +0.000 OA
ATOM     10  C   UNL     1      -1.135  -2.858  -0.178  1.00  0.00    +0.000 C 
ATOM     11  C   UNL     1      -2.225  -1.909   0.163  1.00  0.00    +0.000 C 
ATOM     12  C   UNL     1      -3.172  -2.052   1.113  1.00  0.00    +0.000 C 
ATOM     13  C   UNL     1      -4.177  -0.932   1.044  1.00  0.00    +0.000 C 
ATOM     14  N   UNL     1      -3.432   0.014   0.252  1.00  0.00    +0.000 NA
ATOM     15  C   UNL     1      -2.588  -0.737  -0.687  1.00  0.00    +0.000 C 
ATOM     16  C   UNL     1      -1.725   0.418  -1.194  1.00  0.00    +0.000 C 
ATOM     17  C   UNL     1      -2.785   1.553  -1.319  1.00  0.00    +0.000 C 
ATOM     18  C   UNL     1      -3.999   1.111  -0.473  1.00  0.00    +0.000 C 
ATOM     19  O   UNL     1      -0.708   0.758  -0.238  1.00  0.00    +0.000 OA
ATOM     20  C   UNL     1       0.185   1.695  -0.635  1.00  0.00    +0.000 C 
ATOM     21  O   UNL     1       0.197   2.282  -1.704  1.00  0.00    +0.000 OA
ATOM     22  C   UNL     1       3.458  -2.537  -0.541  1.00  0.00    +0.000 C 
ATOM     23  C   UNL     1       4.114   0.196   0.438  1.00  0.00    +0.000 C 
ENDROOT
BRANCH   6  24
ATOM     24  O   UNL     1       2.415  -2.138   1.546  1.00  0.00    +0.000 OA
ATOM     25  H   UNL     1       1.484  -2.192   1.839  1.00  0.00    +0.000 HD
ENDBRANCH   6  24
TORSDOF 1
