REMARK  Name = /srv/my_project/app/compsite/backup/Dave/CORINA_stuff/newPDBs/SANC00506.pdb
AUTHORGENERATED BY OPEN BABEL 2.3.2
REMARK  46 active torsions:
REMARK  status: ('A' for Active; 'I' for Inactive)
REMARK    1  A    between atoms: C_2  and  O_3
REMARK    2  A    between atoms: O_3  and  C_4
REMARK    3  A    between atoms: C_15  and  O_17
REMARK    4  A    between atoms: O_17  and  C_18
REMARK    5  A    between atoms: C_21  and  C_23
REMARK    6  A    between atoms: C_23  and  O_24
REMARK    7  A    between atoms: O_24  and  C_25
REMARK    8  A    between atoms: C_28  and  C_30
REMARK    9  A    between atoms: C_30  and  O_31
REMARK   10  A    between atoms: C_32  and  O_34
REMARK   11  A    between atoms: O_34  and  C_35
REMARK   12  A    between atoms: C_38  and  C_40
REMARK   13  A    between atoms: C_40  and  O_41
REMARK   14  A    between atoms: C_42  and  O_44
REMARK   15  A    between atoms: C_45  and  O_47
REMARK   16  A    between atoms: C_48  and  O_50
REMARK   17  A    between atoms: C_51  and  O_53
REMARK   18  A    between atoms: C_54  and  O_56
REMARK   19  A    between atoms: C_57  and  O_59
REMARK   20  A    between atoms: C_60  and  O_62
REMARK   21  A    between atoms: C_63  and  O_65
REMARK   22  A    between atoms: C_68  and  C_69
REMARK   23  A    between atoms: C_74  and  C_75
REMARK   24  A    between atoms: C_76  and  O_77
REMARK   25  A    between atoms: C_76  and  C_78
REMARK   26  A    between atoms: C_78  and  C_80
REMARK   27  A    between atoms: C_78  and  C_81
REMARK   28  A    between atoms: C_81  and  C_83
REMARK   29  A    between atoms: C_83  and  C_84
REMARK   30  A    between atoms: C_84  and  C_85
REMARK   31  A    between atoms: C_85  and  C_86
REMARK   32  A    between atoms: C_85  and  C_87
REMARK   33  A    between atoms: C_90  and  O_92
REMARK   34  A    between atoms: C_93  and  O_95
REMARK   35  A    between atoms: O_95  and  C_96
REMARK   36  A    between atoms: C_100  and  O_102
REMARK   37  A    between atoms: C_103  and  O_105
REMARK   38  A    between atoms: C_106  and  O_108
REMARK   39  A    between atoms: O_108  and  C_109
REMARK   40  A    between atoms: C_109  and  C_111
REMARK   41  A    between atoms: C_114  and  O_115
REMARK   42  A    between atoms: C_116  and  O_117
REMARK   43  A    between atoms: O_117  and  C_118
REMARK   44  A    between atoms: C_120  and  O_122
REMARK   45  A    between atoms: O_122  and  C_123
REMARK   46  A    between atoms: C_123  and  C_124
REMARK                            x       y       z     vdW  Elec       q    Type
REMARK                         _______ _______ _______ _____ _____    ______ ____
ROOT
ATOM      1  C   UNL     1      -5.088  -2.268   1.623  1.00  0.00    +0.000 C 
ATOM      2  C   UNL     1      -4.005  -2.056   0.532  1.00  0.00    +0.000 C 
ATOM      3  C   UNL     1      -2.736  -1.711   1.297  1.00  0.00    +0.000 C 
ATOM      4  C   UNL     1      -1.550  -1.107   0.517  1.00  0.00    +0.000 C 
ATOM      5  C   UNL     1      -1.113  -2.042  -0.623  1.00  0.00    +0.000 C 
ATOM      6  C   UNL     1       0.254  -1.755  -1.161  1.00  0.00    +0.000 C 
ATOM      7  C   UNL     1       1.159  -0.955  -0.571  1.00  0.00    +0.000 C 
ATOM      8  C   UNL     1       2.508  -0.712  -1.220  1.00  0.00    +0.000 C 
ATOM      9  C   UNL     1       3.667  -0.992  -0.258  1.00  0.00    +0.000 C 
ATOM     10  C   UNL     1       3.484  -0.186   1.031  1.00  0.00    +0.000 C 
ATOM     11  C   UNL     1       2.139  -0.477   1.691  1.00  0.00    +0.000 C 
ATOM     12  C   UNL     1       0.902  -0.253   0.769  1.00  0.00    +0.000 C 
ATOM     13  C   UNL     1       0.720   1.259   0.493  1.00  0.00    +0.000 C 
ATOM     14  C   UNL     1      -0.368  -0.860   1.494  1.00  0.00    +0.000 C 
ATOM     15  C   UNL     1      -0.823  -0.056   2.739  1.00  0.00    +0.000 C 
ATOM     16  C   UNL     1      -2.064  -0.644   3.428  1.00  0.00    +0.000 C 
ATOM     17  C   UNL     1      -3.253  -0.818   2.453  1.00  0.00    +0.000 C 
ATOM     18  C   UNL     1      -3.742   0.569   1.963  1.00  0.00    +0.000 C 
ATOM     19  C   UNL     1      -4.461  -1.696   2.966  1.00  0.00    +0.000 C 
ENDROOT
BRANCH  19  20
ATOM     20  C   UNL     1      -5.502  -0.987   3.884  1.00  0.00    +0.000 C 
ATOM     21  C   UNL     1      -4.908  -0.317   5.126  1.00  0.00    +0.000 C 
BRANCH  20  22
ATOM     22  C   UNL     1      -6.516  -1.998   4.412  1.00  0.00    +0.000 C 
ATOM     23  O   UNL     1      -6.133  -2.955   5.091  1.00  0.00    +0.000 OA
BRANCH  22  24
ATOM     24  C   UNL     1      -7.986  -1.738   4.133  1.00  0.00    +0.000 C 
BRANCH  24  25
ATOM     25  C   UNL     1      -8.933  -2.757   4.774  1.00  0.00    +0.000 C 
BRANCH  25  26
ATOM     26  C   UNL     1      -9.208  -4.015   3.923  1.00  0.00    +0.000 C 
ATOM     27  C   UNL     1      -7.976  -4.899   3.705  1.00  0.00    +0.000 C 
ATOM     28  C   UNL     1     -10.321  -4.844   4.573  1.00  0.00    +0.000 C 
ENDBRANCH  25  26
ENDBRANCH  24  25
ENDBRANCH  22  24
ENDBRANCH  20  22
ENDBRANCH  19  20
BRANCH  19  29
ATOM     29  O   UNL     1      -3.869  -2.826   3.652  1.00  0.00    +0.000 OA
ATOM     30  H   UNL     1      -4.426  -3.077   4.422  1.00  0.00    +0.000 HD
ENDBRANCH  19  29
BRANCH   1  31
ATOM     31  O   UNL     1      -6.300  -1.593   1.269  1.00  0.00    +0.000 OA
BRANCH  31  32
ATOM     32  C   UNL     1      -7.094  -2.266   0.273  1.00  0.00    +0.000 C 
ATOM     33  O   UNL     1      -6.367  -2.424  -0.946  1.00  0.00    +0.000 OA
ATOM     34  C   UNL     1      -7.085  -3.139  -1.952  1.00  0.00    +0.000 C 
ATOM     35  C   UNL     1      -8.546  -2.695  -2.076  1.00  0.00    +0.000 C 
ATOM     36  C   UNL     1      -8.758  -1.309  -1.435  1.00  0.00    +0.000 C 
ATOM     37  C   UNL     1      -8.409  -1.439   0.064  1.00  0.00    +0.000 C 
BRANCH  35  38
ATOM     38  O   UNL     1      -9.000  -2.759  -3.425  1.00  0.00    +0.000 OA
ATOM     39  H   UNL     1      -8.497  -2.091  -3.937  1.00  0.00    +0.000 HD
ENDBRANCH  35  38
BRANCH  37  40
ATOM     40  O   UNL     1      -9.483  -2.158   0.742  1.00  0.00    +0.000 OA
BRANCH  40  41
ATOM     41  C   UNL     1     -10.626  -1.456   0.979  1.00  0.00    +0.000 C 
ATOM     42  C   UNL     1     -11.677  -2.344   1.574  1.00  0.00    +0.000 C 
ATOM     43  O   UNL     1     -10.794  -0.268   0.744  1.00  0.00    +0.000 OA
ENDBRANCH  40  41
ENDBRANCH  37  40
BRANCH  36  44
ATOM     44  O   UNL     1      -7.919  -0.290  -1.994  1.00  0.00    +0.000 OA
BRANCH  44  45
ATOM     45  C   UNL     1      -8.379   0.288  -3.214  1.00  0.00    +0.000 C 
ATOM     46  O   UNL     1      -7.866  -0.485  -4.316  1.00  0.00    +0.000 OA
ATOM     47  C   UNL     1      -6.472  -0.237  -4.537  1.00  0.00    +0.000 C 
ATOM     48  C   UNL     1      -6.265   1.188  -5.041  1.00  0.00    +0.000 C 
ATOM     49  C   UNL     1      -7.420   2.124  -4.651  1.00  0.00    +0.000 C 
ATOM     50  C   UNL     1      -7.952   1.784  -3.263  1.00  0.00    +0.000 C 
BRANCH  49  51
ATOM     51  O   UNL     1      -6.952   3.484  -4.702  1.00  0.00    +0.000 OA
ATOM     52  H   UNL     1      -6.492   3.588  -5.556  1.00  0.00    +0.000 HD
ENDBRANCH  49  51
BRANCH  48  53
ATOM     53  O   UNL     1      -6.136   1.204  -6.475  1.00  0.00    +0.000 OA
ATOM     54  H   UNL     1      -6.993   0.934  -6.861  1.00  0.00    +0.000 HD
ENDBRANCH  48  53
BRANCH  50  55
ATOM     55  O   UNL     1      -9.106   2.627  -3.008  1.00  0.00    +0.000 OA
BRANCH  55  56
ATOM     56  C   UNL     1      -9.479   2.727  -1.708  1.00  0.00    +0.000 C 
ATOM     57  O   UNL     1      -8.925   2.197  -0.759  1.00  0.00    +0.000 OA
BRANCH  56  58
ATOM     58  C   UNL     1     -10.729   3.523  -1.591  1.00  0.00    +0.000 A 
ATOM     59  C   UNL     1     -11.141   4.402  -2.604  1.00  0.00    +0.000 A 
ATOM     60  C   UNL     1     -12.329   5.118  -2.463  1.00  0.00    +0.000 A 
ATOM     61  C   UNL     1     -13.090   4.951  -1.312  1.00  0.00    +0.000 A 
ATOM     62  C   UNL     1     -12.693   4.088  -0.283  1.00  0.00    +0.000 A 
ATOM     63  C   UNL     1     -11.507   3.366  -0.431  1.00  0.00    +0.000 A 
BRANCH  61  64
ATOM     64  O   UNL     1     -14.249   5.671  -1.195  1.00  0.00    +0.000 OA
ATOM     65  H   UNL     1     -14.635   5.383  -0.346  1.00  0.00    +0.000 HD
ENDBRANCH  61  64
BRANCH  62  66
ATOM     66  O   UNL     1     -13.543   4.038   0.795  1.00  0.00    +0.000 OA
ATOM     67  C   UNL     1     -13.075   3.318   1.934  1.00  0.00    +0.000 C 
ENDBRANCH  62  66
ENDBRANCH  56  58
ENDBRANCH  55  56
ENDBRANCH  50  55
ENDBRANCH  44  45
ENDBRANCH  36  44
ENDBRANCH  31  32
ENDBRANCH   1  31
BRANCH   9  68
ATOM     68  O   UNL     1       4.885  -0.596  -0.901  1.00  0.00    +0.000 OA
BRANCH  68  69
ATOM     69  C   UNL     1       6.045  -1.281  -0.409  1.00  0.00    +0.000 C 
ATOM     70  O   UNL     1       7.059  -0.284  -0.234  1.00  0.00    +0.000 OA
ATOM     71  C   UNL     1       8.419  -0.697  -0.390  1.00  0.00    +0.000 C 
ATOM     72  C   UNL     1       8.656  -2.195  -0.135  1.00  0.00    +0.000 C 
ATOM     73  C   UNL     1       7.721  -3.085  -0.970  1.00  0.00    +0.000 C 
ATOM     74  C   UNL     1       6.449  -2.359  -1.431  1.00  0.00    +0.000 C 
BRANCH  74  75
ATOM     75  O   UNL     1       5.417  -3.338  -1.642  1.00  0.00    +0.000 OA
ATOM     76  H   UNL     1       5.765  -3.936  -2.330  1.00  0.00    +0.000 HD
ENDBRANCH  74  75
BRANCH  73  77
ATOM     77  O   UNL     1       8.386  -3.598  -2.134  1.00  0.00    +0.000 OA
ATOM     78  H   UNL     1       9.128  -4.146  -1.821  1.00  0.00    +0.000 HD
ENDBRANCH  73  77
BRANCH  72  79
ATOM     79  O   UNL     1       8.405  -2.487   1.250  1.00  0.00    +0.000 OA
ATOM     80  H   UNL     1       8.983  -1.921   1.792  1.00  0.00    +0.000 HD
ENDBRANCH  72  79
BRANCH  71  81
ATOM     81  C   UNL     1       8.965  -0.232  -1.753  1.00  0.00    +0.000 C 
BRANCH  81  82
ATOM     82  O   UNL     1      10.395  -0.343  -1.757  1.00  0.00    +0.000 OA
BRANCH  82  83
ATOM     83  C   UNL     1      10.968  -0.025  -3.024  1.00  0.00    +0.000 C 
ATOM     84  O   UNL     1      12.255  -0.634  -3.130  1.00  0.00    +0.000 OA
ATOM     85  C   UNL     1      13.226  -0.164  -2.185  1.00  0.00    +0.000 C 
ATOM     86  C   UNL     1      12.961   1.239  -1.593  1.00  0.00    +0.000 C 
ATOM     87  C   UNL     1      12.357   2.118  -2.695  1.00  0.00    +0.000 C 
ATOM     88  C   UNL     1      11.079   1.494  -3.282  1.00  0.00    +0.000 C 
BRANCH  88  89
ATOM     89  O   UNL     1      11.048   1.772  -4.695  1.00  0.00    +0.000 OA
ATOM     90  H   UNL     1      11.759   1.245  -5.108  1.00  0.00    +0.000 HD
ENDBRANCH  88  89
BRANCH  87  91
ATOM     91  O   UNL     1      12.010   3.416  -2.181  1.00  0.00    +0.000 OA
ATOM     92  H   UNL     1      11.841   3.985  -2.957  1.00  0.00    +0.000 HD
ENDBRANCH  87  91
BRANCH  85  93
ATOM     93  C   UNL     1      13.456  -1.214  -1.085  1.00  0.00    +0.000 C 
BRANCH  93  94
ATOM     94  O   UNL     1      14.517  -0.864  -0.198  1.00  0.00    +0.000 OA
ATOM     95  H   UNL     1      15.275  -0.588  -0.753  1.00  0.00    +0.000 HD
ENDBRANCH  93  94
ENDBRANCH  85  93
BRANCH  86  96
ATOM     96  O   UNL     1      14.240   1.713  -1.142  1.00  0.00    +0.000 OA
BRANCH  96  97
ATOM     97  C   UNL     1      14.184   2.871  -0.296  1.00  0.00    +0.000 C 
ATOM     98  O   UNL     1      14.806   3.946  -0.993  1.00  0.00    +0.000 OA
ATOM     99  C   UNL     1      15.157   5.095  -0.201  1.00  0.00    +0.000 C 
ATOM    100  C   UNL     1      14.712   5.047   1.276  1.00  0.00    +0.000 C 
ATOM    101  C   UNL     1      15.004   3.702   1.953  1.00  0.00    +0.000 C 
ATOM    102  C   UNL     1      14.977   2.516   0.975  1.00  0.00    +0.000 C 
BRANCH 102 103
ATOM    103  O   UNL     1      14.435   1.372   1.659  1.00  0.00    +0.000 OA
ATOM    104  H   UNL     1      14.519   0.615   1.034  1.00  0.00    +0.000 HD
ENDBRANCH 102 103
BRANCH 101 105
ATOM    105  O   UNL     1      16.296   3.764   2.586  1.00  0.00    +0.000 OA
ATOM    106  H   UNL     1      16.337   2.979   3.168  1.00  0.00    +0.000 HD
ENDBRANCH 101 105
BRANCH 100 107
ATOM    107  O   UNL     1      13.294   5.291   1.331  1.00  0.00    +0.000 OA
ATOM    108  H   UNL     1      13.051   5.429   2.265  1.00  0.00    +0.000 HD
ENDBRANCH 100 107
BRANCH  99 109
ATOM    109  C   UNL     1      16.668   5.360  -0.354  1.00  0.00    +0.000 C 
BRANCH 109 110
ATOM    110  O   UNL     1      17.492   4.331   0.181  1.00  0.00    +0.000 OA
ATOM    111  H   UNL     1      17.343   4.290   1.149  1.00  0.00    +0.000 HD
ENDBRANCH 109 110
ENDBRANCH  99 109
ENDBRANCH  96  97
ENDBRANCH  86  96
ENDBRANCH  82  83
ENDBRANCH  81  82
ENDBRANCH  71  81
ENDBRANCH  68  69
ENDBRANCH   9  68
TORSDOF 39
