REMARK  Name = SANCDB_00731_minRM1.pdb
AUTHORGENERATED BY OPEN BABEL 2.3.2
REMARK  8 active torsions:
REMARK  status: ('A' for Active; 'I' for Inactive)
REMARK    1  A    between atoms: C_2  and  C_3
REMARK    2  A    between atoms: C_3  and  C_4
REMARK    3  A    between atoms: C_3  and  C_6
REMARK    4  A    between atoms: C_6  and  C_8
REMARK    5  A    between atoms: C_8  and  C_9
REMARK    6  A    between atoms: C_9  and  C_11
REMARK    7  A    between atoms: C_11  and  C_12
REMARK    8  A    between atoms: C_11  and  C_13
REMARK                            x       y       z     vdW  Elec       q    Type
REMARK                         _______ _______ _______ _____ _____    ______ ____
ROOT
ATOM      1  C   UNL     1      -0.694  -0.411  -0.933  1.00  0.00    +0.000 C 
ATOM      2 CL   UNL     1      -0.057  -1.804  -1.887  1.00  0.00    +0.000 Cl
ENDROOT
BRANCH   1   3
ATOM      3  C   UNL     1      -2.241  -0.217  -1.173  1.00  0.00    +0.000 C 
ATOM      4  C   UNL     1      -3.060  -1.451  -0.746  1.00  0.00    +0.000 C 
ATOM      5 CL   UNL     1      -2.552   0.037  -2.953  1.00  0.00    +0.000 Cl
BRANCH   3   7
ATOM      6  C   UNL     1      -2.259   2.199  -0.274  1.00  0.00    +0.000 C 
ATOM      7  C   UNL     1      -2.851   1.019  -0.511  1.00  0.00    +0.000 C 
ENDBRANCH   3   7
ENDBRANCH   1   3
BRANCH   1   8
ATOM      8  C   UNL     1      -0.327  -0.580   0.559  1.00  0.00    +0.000 C 
BRANCH   8   9
ATOM      9  C   UNL     1       1.153  -0.679   1.017  1.00  0.00    +0.000 C 
ATOM     10 CL   UNL     1       1.760  -2.369   0.842  1.00  0.00    +0.000 Cl
BRANCH   9  11
ATOM     11  C   UNL     1       2.202   0.374   0.537  1.00  0.00    +0.000 C 
ATOM     12  C   UNL     1       3.442   0.339   1.457  1.00  0.00    +0.000 C 
ATOM     13  C   UNL     1       2.690   0.216  -0.909  1.00  0.00    +0.000 C 
ATOM     14 CL   UNL     1       1.501   2.035   0.703  1.00  0.00    +0.000 Cl
ENDBRANCH   9  11
ENDBRANCH   8   9
ENDBRANCH   1   8
TORSDOF 5
