REMARK  Name = /srv/my_project/app/compsite/backup/Dave/CORINA_stuff/newPDBs/SANC00290.pdb
AUTHORGENERATED BY OPEN BABEL 2.3.2
REMARK  3 active torsions:
REMARK  status: ('A' for Active; 'I' for Inactive)
REMARK    1  A    between atoms: C_10  and  C_11
REMARK    2  A    between atoms: C_28  and  C_29
REMARK    3  A    between atoms: C_32  and  N_34
REMARK                            x       y       z     vdW  Elec       q    Type
REMARK                         _______ _______ _______ _____ _____    ______ ____
ROOT
ATOM      1  C   UNL     1       3.348  -0.107  -0.821  1.00  0.00    +0.000 C 
ATOM      2  C   UNL     1       2.665   0.054  -2.184  1.00  0.00    +0.000 C 
ATOM      3  C   UNL     1       1.267  -0.561  -2.173  1.00  0.00    +0.000 C 
ATOM      4  C   UNL     1       0.391  -0.005  -1.040  1.00  0.00    +0.000 C 
ATOM      5  C   UNL     1       1.105  -0.136   0.344  1.00  0.00    +0.000 C 
ATOM      6  C   UNL     1       0.188   0.303   1.515  1.00  0.00    +0.000 C 
ATOM      7  C   UNL     1      -1.209  -0.347   1.481  1.00  0.00    +0.000 C 
ATOM      8  C   UNL     1      -1.903  -0.160   0.121  1.00  0.00    +0.000 C 
ATOM      9  C   UNL     1      -2.223   1.341  -0.089  1.00  0.00    +0.000 C 
ATOM     10  C   UNL     1      -0.955  -0.734  -0.962  1.00  0.00    +0.000 C 
ATOM     11  C   UNL     1      -1.838  -0.797  -2.206  1.00  0.00    +0.000 C 
ATOM     12  C   UNL     1      -3.209  -1.207  -1.644  1.00  0.00    +0.000 C 
ATOM     13  O   UNL     1      -4.220  -0.281  -2.049  1.00  0.00    +0.000 OA
ATOM     14  C   UNL     1      -5.014   0.024  -0.978  1.00  0.00    +0.000 C 
ATOM     15  O   UNL     1      -5.963   0.791  -1.027  1.00  0.00    +0.000 OA
ATOM     16  C   UNL     1      -4.545  -0.735   0.253  1.00  0.00    +0.000 C 
ATOM     17  C   UNL     1      -4.789  -0.045   1.573  1.00  0.00    +0.000 C 
ATOM     18  C   UNL     1      -6.206  -0.455   1.917  1.00  0.00    +0.000 C 
ATOM     19  C   UNL     1      -6.325  -1.784   1.241  1.00  0.00    +0.000 C 
ATOM     20  O   UNL     1      -7.189  -2.618   1.456  1.00  0.00    +0.000 OA
ATOM     21  O   UNL     1      -5.318  -1.945   0.335  1.00  0.00    +0.000 OA
ATOM     22  C   UNL     1      -3.119  -1.104  -0.112  1.00  0.00    +0.000 C 
ATOM     23  C   UNL     1       2.526   0.542   0.339  1.00  0.00    +0.000 C 
ATOM     24  C   UNL     1       2.400   2.079   0.174  1.00  0.00    +0.000 C 
ATOM     25  C   UNL     1       3.276   0.251   1.669  1.00  0.00    +0.000 C 
ATOM     26  C   UNL     1       4.746   0.688   1.653  1.00  0.00    +0.000 C 
ATOM     27  C   UNL     1       5.511   0.095   0.468  1.00  0.00    +0.000 C 
ATOM     28  C   UNL     1       4.807   0.373  -0.865  1.00  0.00    +0.000 C 
ENDROOT
BRANCH  27  29
ATOM     29  N   UNL     1       6.870   0.631   0.434  1.00  0.00    +0.000 NA
ATOM     30  H   UNL     1       7.395   0.193  -0.321  1.00  0.00    +0.000 HD
ATOM     31  H   UNL     1       7.356   0.394   1.298  1.00  0.00    +0.000 HD
ENDBRANCH  27  29
TORSDOF 1
