REMARK  Name = SANCDB_00849_minRM1.pdb
AUTHORGENERATED BY OPEN BABEL 2.3.2
REMARK  5 active torsions:
REMARK  status: ('A' for Active; 'I' for Inactive)
REMARK    1  A    between atoms: C_2  and  C_10
REMARK    2  A    between atoms: C_4  and  O_9
REMARK    3  A    between atoms: C_5  and  O_8
REMARK    4  A    between atoms: C_6  and  O_7
REMARK    5  A    between atoms: C_10  and  O_12
REMARK                            x       y       z     vdW  Elec       q    Type
REMARK                         _______ _______ _______ _____ _____    ______ ____
ROOT
ATOM      1  C   UNL     1       0.379   0.934   0.524  1.00  0.00    +0.000 A 
ATOM      2  C   UNL     1       1.072   0.067  -0.339  1.00  0.00    +0.000 A 
ATOM      3  C   UNL     1       0.424  -1.048  -0.893  1.00  0.00    +0.000 A 
ATOM      4  C   UNL     1      -0.907  -1.285  -0.581  1.00  0.00    +0.000 A 
ATOM      5  C   UNL     1      -1.594  -0.430   0.270  1.00  0.00    +0.000 A 
ATOM      6  C   UNL     1      -0.956   0.675   0.821  1.00  0.00    +0.000 A 
ENDROOT
BRANCH   6   7
ATOM      7  O   UNL     1      -1.683   1.480   1.653  1.00  0.00    +0.000 OA
ATOM      8  H   UNL     1      -1.111   2.206   1.959  1.00  0.00    +0.000 HD
ENDBRANCH   6   7
BRANCH   5   9
ATOM      9  O   UNL     1      -2.906  -0.691   0.558  1.00  0.00    +0.000 OA
ATOM     10  H   UNL     1      -3.170   0.032   1.164  1.00  0.00    +0.000 HD
ENDBRANCH   5   9
BRANCH   4  11
ATOM     11  O   UNL     1      -1.539  -2.368  -1.119  1.00  0.00    +0.000 OA
ATOM     12  H   UNL     1      -2.450  -2.328  -0.762  1.00  0.00    +0.000 HD
ENDBRANCH   4  11
BRANCH   2  13
ATOM     13  C   UNL     1       2.494   0.292  -0.692  1.00  0.00    +0.000 C 
ATOM     14  O   UNL     1       3.171  -0.402  -1.426  1.00  0.00    +0.000 OA
BRANCH  13  15
ATOM     15  O   UNL     1       3.007   1.388  -0.102  1.00  0.00    +0.000 OA
ATOM     16  H   UNL     1       3.934   1.407  -0.423  1.00  0.00    +0.000 HD
ENDBRANCH  13  15
ENDBRANCH   2  13
TORSDOF 5
