REMARK  Name = /srv/my_project/app/compsite/backup/Dave/CORINA_stuff/newPDBs/SANC00432.pdb
AUTHORGENERATED BY OPEN BABEL 2.3.2
REMARK  3 active torsions:
REMARK  status: ('A' for Active; 'I' for Inactive)
REMARK    1  A    between atoms: C_1  and  C_2
REMARK    2  A    between atoms: C_8  and  O_19
REMARK    3  A    between atoms: C_16  and  O_18
REMARK                            x       y       z     vdW  Elec       q    Type
REMARK                         _______ _______ _______ _____ _____    ______ ____
ROOT
ATOM      1  C   UNL     1      -1.680  -0.867   1.967  1.00  0.00    +0.000 C 
ATOM      2  C   UNL     1      -0.717  -0.730   0.759  1.00  0.00    +0.000 C 
ATOM      3  C   UNL     1       0.595  -1.474   1.161  1.00  0.00    +0.000 C 
ATOM      4  C   UNL     1       1.721  -1.190   0.182  1.00  0.00    +0.000 C 
ATOM      5  C   UNL     1       2.011   0.291   0.140  1.00  0.00    +0.000 C 
ATOM      6  C   UNL     1       0.813   1.047  -0.428  1.00  0.00    +0.000 C 
ATOM      7  C   UNL     1      -0.435   0.791   0.481  1.00  0.00    +0.000 C 
ATOM      8  C   UNL     1      -1.681   1.474  -0.083  1.00  0.00    +0.000 C 
ATOM      9  C   UNL     1      -2.210   2.571   0.484  1.00  0.00    +0.000 C 
ATOM     10  C   UNL     1      -2.315   0.824  -1.287  1.00  0.00    +0.000 C 
ATOM     11  C   UNL     1      -2.593  -0.651  -1.028  1.00  0.00    +0.000 C 
ATOM     12  C   UNL     1      -1.345  -1.378  -0.517  1.00  0.00    +0.000 C 
ATOM     13  C   UNL     1       3.325   0.210  -0.554  1.00  0.00    +0.000 C 
ATOM     14  C   UNL     1       3.902   1.030  -1.437  1.00  0.00    +0.000 C 
ATOM     15  C   UNL     1       3.947  -1.064  -0.089  1.00  0.00    +0.000 C 
ATOM     16  O   UNL     1       5.109  -1.397  -0.220  1.00  0.00    +0.000 OA
ATOM     17  O   UNL     1       2.965  -1.787   0.539  1.00  0.00    +0.000 OA
ENDROOT
BRANCH  12  18
ATOM     18  O   UNL     1      -1.650  -2.752  -0.300  1.00  0.00    +0.000 OA
ATOM     19  H   UNL     1      -2.454  -2.810   0.244  1.00  0.00    +0.000 HD
ENDBRANCH  12  18
BRANCH   6  20
ATOM     20  O   UNL     1       1.124   2.444  -0.425  1.00  0.00    +0.000 OA
ATOM     21  H   UNL     1       0.329   2.925  -0.717  1.00  0.00    +0.000 HD
ENDBRANCH   6  20
TORSDOF 2
