REMARK  Name = SANCDB_00894_minRM1.pdb
AUTHORGENERATED BY OPEN BABEL 2.3.2
REMARK  0 active torsions:
REMARK  status: ('A' for Active; 'I' for Inactive)
REMARK                            x       y       z     vdW  Elec       q    Type
REMARK                         _______ _______ _______ _____ _____    ______ ____
ROOT
ATOM      1  C   UNL     1      -3.863  -0.779  -0.054  1.00  0.00    +0.000 C 
ATOM      2  C   UNL     1      -2.824  -1.917   0.077  1.00  0.00    +0.000 C 
ATOM      3  N   UNL     1      -1.507  -1.287   0.003  1.00  0.00    +0.000 N 
ATOM      4  C   UNL     1      -1.656   0.081  -0.155  1.00  0.00    +0.000 A 
ATOM      5  C   UNL     1      -2.997   0.436  -0.195  1.00  0.00    +0.000 A 
ATOM      6  C   UNL     1      -3.342   1.762  -0.348  1.00  0.00    +0.000 A 
ATOM      7  C   UNL     1      -2.307   2.700  -0.457  1.00  0.00    +0.000 A 
ATOM      8  C   UNL     1      -0.949   2.308  -0.413  1.00  0.00    +0.000 A 
ATOM      9  C   UNL     1      -0.593   0.963  -0.258  1.00  0.00    +0.000 A 
ATOM     10  C   UNL     1       0.765   0.396  -0.194  1.00  0.00    +0.000 A 
ATOM     11  C   UNL     1       1.925   1.185  -0.286  1.00  0.00    +0.000 A 
ATOM     12  C   UNL     1       3.157   0.563  -0.215  1.00  0.00    +0.000 A 
ATOM     13  C   UNL     1       3.283  -0.796  -0.058  1.00  0.00    +0.000 A 
ATOM     14  C   UNL     1       2.186  -1.619   0.038  1.00  0.00    +0.000 A 
ATOM     15  C   UNL     1       0.917  -1.020  -0.030  1.00  0.00    +0.000 A 
ATOM     16  C   UNL     1      -0.288  -1.913   0.074  1.00  0.00    +0.000 A 
ATOM     17  O   UNL     1      -0.162  -3.126   0.214  1.00  0.00    +0.000 OA
ATOM     18  O   UNL     1       4.582  -1.195  -0.013  1.00  0.00    +0.000 OA
ATOM     19  C   UNL     1       5.262   0.069  -0.160  1.00  0.00    +0.000 C 
ATOM     20  O   UNL     1       4.362   1.190  -0.289  1.00  0.00    +0.000 OA
ENDROOT
TORSDOF 0
