REMARK  Name = SANCDB_00934_minRM1.pdb
AUTHORGENERATED BY OPEN BABEL 2.3.2
REMARK  6 active torsions:
REMARK  status: ('A' for Active; 'I' for Inactive)
REMARK    1  A    between atoms: C_1  and  C_2
REMARK    2  A    between atoms: C_6  and  C_25
REMARK    3  A    between atoms: C_11  and  C_12
REMARK    4  A    between atoms: C_11  and  O_19
REMARK    5  A    between atoms: C_12  and  C_13
REMARK    6  A    between atoms: C_13  and  C_14
REMARK                            x       y       z     vdW  Elec       q    Type
REMARK                         _______ _______ _______ _____ _____    ______ ____
ROOT
ATOM      1  C   UNL     1      -4.549   0.477   0.300  1.00  0.00    +0.000 C 
ATOM      2  C   UNL     1      -3.324  -0.402  -0.049  1.00  0.00    +0.000 C 
ATOM      3  C   UNL     1      -3.373  -1.644   0.856  1.00  0.00    +0.000 C 
ATOM      4  C   UNL     1      -2.053  -2.361   1.116  1.00  0.00    +0.000 C 
ATOM      5  C   UNL     1      -0.895  -1.389   1.347  1.00  0.00    +0.000 C 
ATOM      6  C   UNL     1      -0.687  -0.450   0.127  1.00  0.00    +0.000 C 
ATOM      7  C   UNL     1      -2.012   0.385   0.010  1.00  0.00    +0.000 C 
ATOM      8  C   UNL     1      -2.061   1.187  -1.275  1.00  0.00    +0.000 C 
ATOM      9  C   UNL     1      -0.707   1.668  -1.782  1.00  0.00    +0.000 C 
ATOM     10  C   UNL     1       0.336   1.771  -0.691  1.00  0.00    +0.000 C 
ATOM     11  C   UNL     1       0.489   0.612   0.336  1.00  0.00    +0.000 C 
ATOM     12  C   UNL     1       0.830   3.165  -0.316  1.00  0.00    +0.000 C 
ATOM     13  O   UNL     1       1.571   2.318  -1.194  1.00  0.00    +0.000 OA
ATOM     14  O   UNL     1      -2.681   0.291  -2.214  1.00  0.00    +0.000 OA
ATOM     15  C   UNL     1      -3.417  -0.656  -1.540  1.00  0.00    +0.000 C 
ATOM     16  O   UNL     1      -4.058  -1.537  -2.086  1.00  0.00    +0.000 OA
ATOM     17  C   UNL     1      -0.350  -1.366  -1.090  1.00  0.00    +0.000 C 
ENDROOT
BRANCH  11  18
ATOM     18  O   UNL     1       0.298   1.198   1.636  1.00  0.00    +0.000 OA
ATOM     19  H   UNL     1       0.577   0.550   2.305  1.00  0.00    +0.000 HD
ENDBRANCH  11  18
BRANCH  11  20
ATOM     20  C   UNL     1       1.896  -0.052   0.290  1.00  0.00    +0.000 C 
BRANCH  20  21
ATOM     21  C   UNL     1       3.036   0.733   0.962  1.00  0.00    +0.000 C 
BRANCH  21  22
ATOM     22  C   UNL     1       4.334  -0.004   0.878  1.00  0.00    +0.000 A 
ATOM     23  C   UNL     1       4.893  -0.833   1.830  1.00  0.00    +0.000 A 
ATOM     24  O   UNL     1       6.080  -1.329   1.401  1.00  0.00    +0.000 OA
ATOM     25  C   UNL     1       6.299  -0.816   0.164  1.00  0.00    +0.000 A 
ATOM     26  C   UNL     1       5.259   0.004  -0.204  1.00  0.00    +0.000 A 
ENDBRANCH  21  22
ENDBRANCH  20  21
ENDBRANCH  11  20
TORSDOF 4
