REMARK  Name = SANCDB_00747_minRM1.pdb
AUTHORGENERATED BY OPEN BABEL 2.3.2
REMARK  7 active torsions:
REMARK  status: ('A' for Active; 'I' for Inactive)
REMARK    1  A    between atoms: O_1  and  C_2
REMARK    2  A    between atoms: C_4  and  O_27
REMARK    3  A    between atoms: C_11  and  C_12
REMARK    4  A    between atoms: C_17  and  C_18
REMARK    5  A    between atoms: C_22  and  C_23
REMARK    6  A    between atoms: C_28  and  C_29
REMARK    7  A    between atoms: C_31  and  O_32
REMARK                            x       y       z     vdW  Elec       q    Type
REMARK                         _______ _______ _______ _____ _____    ______ ____
ROOT
ATOM      1  C   UNL     1      -6.495   1.653  -1.163  1.00  0.00    +0.000 C 
ATOM      2  C   UNL     1      -5.343   1.790  -2.158  1.00  0.00    +0.000 C 
ATOM      3  C   UNL     1      -3.979   1.679  -1.455  1.00  0.00    +0.000 C 
ATOM      4  C   UNL     1      -2.826   1.817  -2.474  1.00  0.00    +0.000 C 
ATOM      5  C   UNL     1      -1.479   1.547  -1.856  1.00  0.00    +0.000 C 
ATOM      6  C   UNL     1      -1.304   0.963  -0.656  1.00  0.00    +0.000 C 
ATOM      7  C   UNL     1      -2.472   0.423   0.190  1.00  0.00    +0.000 C 
ATOM      8  C   UNL     1      -2.127  -0.916   0.911  1.00  0.00    +0.000 C 
ATOM      9  C   UNL     1      -0.718  -0.968   1.527  1.00  0.00    +0.000 C 
ATOM     10  C   UNL     1       0.363  -0.567   0.506  1.00  0.00    +0.000 C 
ATOM     11  C   UNL     1       0.382  -1.580  -0.666  1.00  0.00    +0.000 C 
ATOM     12  C   UNL     1       0.034   0.869   0.033  1.00  0.00    +0.000 C 
ATOM     13  C   UNL     1       1.335   1.306  -0.644  1.00  0.00    +0.000 C 
ATOM     14  C   UNL     1       2.376   0.836   0.369  1.00  0.00    +0.000 C 
ATOM     15  C   UNL     1       1.766  -0.349   1.145  1.00  0.00    +0.000 C 
ATOM     16  C   UNL     1       2.835  -1.442   1.029  1.00  0.00    +0.000 C 
ATOM     17  C   UNL     1       2.930  -2.296   2.286  1.00  0.00    +0.000 C 
ATOM     18  C   UNL     1       4.099  -0.638   0.666  1.00  0.00    +0.000 C 
ATOM     19  O   UNL     1       4.628  -0.023   1.847  1.00  0.00    +0.000 OA
ATOM     20  C   UNL     1       5.943   0.486   1.647  1.00  0.00    +0.000 C 
ATOM     21  C   UNL     1       6.936  -0.675   1.528  1.00  0.00    +0.000 C 
ATOM     22  C   UNL     1       8.215  -0.213   0.834  1.00  0.00    +0.000 C 
ATOM     23  C   UNL     1       6.305  -1.887   0.824  1.00  0.00    +0.000 C 
ATOM     24  C   UNL     1       5.161  -1.460  -0.088  1.00  0.00    +0.000 C 
ATOM     25  O   UNL     1       3.586   0.376  -0.226  1.00  0.00    +0.000 OA
ATOM     26  C   UNL     1      -3.831   0.361  -0.617  1.00  0.00    +0.000 C 
ATOM     27  C   UNL     1      -3.854  -0.884  -1.550  1.00  0.00    +0.000 C 
ATOM     28  C   UNL     1      -5.027   0.256   0.370  1.00  0.00    +0.000 C 
ATOM     29  C   UNL     1      -6.382   0.371  -0.328  1.00  0.00    +0.000 C 
ENDROOT
BRANCH   1  30
ATOM     30  O   UNL     1      -7.743   1.618  -1.869  1.00  0.00    +0.000 OA
ATOM     31  H   UNL     1      -7.835   2.478  -2.317  1.00  0.00    +0.000 HD
ENDBRANCH   1  30
BRANCH   3  32
ATOM     32  O   UNL     1      -3.940   2.821  -0.572  1.00  0.00    +0.000 OA
ATOM     33  H   UNL     1      -3.013   2.967  -0.307  1.00  0.00    +0.000 HD
ENDBRANCH   3  32
BRANCH  29  34
ATOM     34  O   UNL     1      -7.418   0.359   0.659  1.00  0.00    +0.000 OA
ATOM     35  H   UNL     1      -8.232   0.590   0.171  1.00  0.00    +0.000 HD
ENDBRANCH  29  34
TORSDOF 3
