REMARK  Name = /srv/my_project/app/compsite/backup/Dave/CORINA_stuff/newPDBs/SANC00421.pdb
AUTHORGENERATED BY OPEN BABEL 2.3.2
REMARK  11 active torsions:
REMARK  status: ('A' for Active; 'I' for Inactive)
REMARK    1  A    between atoms: C_1  and  C_2
REMARK    2  A    between atoms: C_7  and  C_8
REMARK    3  A    between atoms: C_7  and  C_9
REMARK    4  A    between atoms: C_15  and  C_16
REMARK    5  A    between atoms: C_17  and  C_18
REMARK    6  A    between atoms: C_18  and  C_19
REMARK    7  A    between atoms: C_19  and  C_20
REMARK    8  A    between atoms: C_22  and  C_24
REMARK    9  A    between atoms: C_30  and  C_31
REMARK   10  A    between atoms: C_30  and  C_32
REMARK   11  A    between atoms: C_37  and  C_38
REMARK                            x       y       z     vdW  Elec       q    Type
REMARK                         _______ _______ _______ _____ _____    ______ ____
ROOT
ATOM      1  C   UNL     1      -0.917  -0.849   0.761  1.00  0.00    +0.000 C 
ENDROOT
BRANCH   1  17
ATOM      2  C   UNL     1      -4.009  -0.797   1.526  1.00  0.00    +0.000 C 
ATOM      3  C   UNL     1      -3.415  -0.204   0.225  1.00  0.00    +0.000 C 
ATOM      4  C   UNL     1      -3.024   1.284   0.469  1.00  0.00    +0.000 C 
ATOM      5  C   UNL     1      -4.123   2.320   0.246  1.00  0.00    +0.000 C 
ATOM      6  C   UNL     1      -5.504   1.721   0.268  1.00  0.00    +0.000 C 
ATOM      7  O   UNL     1      -6.381   2.198   0.989  1.00  0.00    +0.000 OA
ATOM      8  C   UNL     1      -5.772   0.566  -0.702  1.00  0.00    +0.000 C 
ATOM      9  C   UNL     1      -6.267   1.199  -2.020  1.00  0.00    +0.000 C 
ATOM     10  C   UNL     1      -6.919  -0.305  -0.150  1.00  0.00    +0.000 C 
ATOM     11  C   UNL     1      -4.439  -0.222  -0.963  1.00  0.00    +0.000 C 
ATOM     12  C   UNL     1      -4.677  -1.644  -1.469  1.00  0.00    +0.000 C 
ATOM     13  C   UNL     1      -3.384  -2.279  -1.895  1.00  0.00    +0.000 C 
ATOM     14  O   UNL     1      -3.352  -3.066  -2.841  1.00  0.00    +0.000 OA
ATOM     15  C   UNL     1      -2.146  -1.992  -1.099  1.00  0.00    +0.000 C 
ATOM     16  C   UNL     1      -0.985  -2.868  -1.495  1.00  0.00    +0.000 C 
ATOM     17  C   UNL     1      -2.155  -1.053  -0.119  1.00  0.00    +0.000 C 
ENDBRANCH   1  17
BRANCH   1  18
ATOM     18  C   UNL     1       0.204  -0.030   0.086  1.00  0.00    +0.000 C 
BRANCH  18  19
ATOM     19  C   UNL     1       1.559  -0.132   0.837  1.00  0.00    +0.000 C 
ATOM     20  C   UNL     1       1.523   0.484   2.280  1.00  0.00    +0.000 C 
ATOM     21  C   UNL     1       0.669   1.748   2.456  1.00  0.00    +0.000 C 
ATOM     22  C   UNL     1       2.923   0.761   2.862  1.00  0.00    +0.000 C 
ATOM     23  C   UNL     1       3.988  -0.172   2.320  1.00  0.00    +0.000 C 
ATOM     24  C   UNL     1       4.084  -0.197   0.788  1.00  0.00    +0.000 C 
ATOM     25  O   UNL     1       5.238   0.547   0.386  1.00  0.00    +0.000 OA
ATOM     26  C   UNL     1       6.082  -0.115  -0.559  1.00  0.00    +0.000 C 
ATOM     27  C   UNL     1       6.976   0.968  -1.173  1.00  0.00    +0.000 C 
ATOM     28  C   UNL     1       6.971  -1.115   0.195  1.00  0.00    +0.000 C 
ATOM     29  C   UNL     1       5.327  -0.822  -1.709  1.00  0.00    +0.000 C 
ATOM     30  O   UNL     1       5.687  -1.908  -2.168  1.00  0.00    +0.000 OA
ATOM     31  C   UNL     1       4.102  -0.127  -2.266  1.00  0.00    +0.000 C 
ATOM     32  C   UNL     1       2.848  -0.346  -1.412  1.00  0.00    +0.000 C 
ATOM     33  C   UNL     1       2.828   0.319   0.010  1.00  0.00    +0.000 C 
ATOM     34  C   UNL     1       2.838   1.851  -0.209  1.00  0.00    +0.000 C 
ENDBRANCH  18  19
ENDBRANCH   1  18
TORSDOF 3
