REMARK  Name = SANCDB_01045_minRM1.pdb
AUTHORGENERATED BY OPEN BABEL 2.3.2
REMARK  6 active torsions:
REMARK  status: ('A' for Active; 'I' for Inactive)
REMARK    1  A    between atoms: C_1  and  O_2
REMARK    2  A    between atoms: O_2  and  C_3
REMARK    3  A    between atoms: C_4  and  O_18
REMARK    4  A    between atoms: C_9  and  O_16
REMARK    5  A    between atoms: O_16  and  C_17
REMARK    6  A    between atoms: O_18  and  C_19
REMARK                            x       y       z     vdW  Elec       q    Type
REMARK                         _______ _______ _______ _____ _____    ______ ____
ROOT
ATOM      1  C   UNL     1      -2.271   0.725   0.378  1.00  0.00    +0.000 A 
ATOM      2  C   UNL     1      -1.571   0.248  -0.748  1.00  0.00    +0.000 A 
ATOM      3  C   UNL     1      -0.174   0.101  -0.775  1.00  0.00    +0.000 A 
ATOM      4  C   UNL     1       0.531   0.421   0.410  1.00  0.00    +0.000 A 
ATOM      5  C   UNL     1      -0.172   0.883   1.543  1.00  0.00    +0.000 A 
ATOM      6  C   UNL     1      -1.558   1.034   1.528  1.00  0.00    +0.000 A 
ATOM      7  C   UNL     1       1.935   0.263   0.420  1.00  0.00    +0.000 A 
ATOM      8  C   UNL     1       2.579  -0.139  -0.757  1.00  0.00    +0.000 A 
ATOM      9  C   UNL     1       3.912  -0.354  -1.194  1.00  0.00    +0.000 A 
ATOM     10  C   UNL     1       3.825  -0.761  -2.505  1.00  0.00    +0.000 A 
ATOM     11  O   UNL     1       2.528  -0.807  -2.905  1.00  0.00    +0.000 OA
ATOM     12  C   UNL     1       1.764  -0.416  -1.845  1.00  0.00    +0.000 A 
ATOM     13  N   UNL     1       0.430  -0.333  -1.898  1.00  0.00    +0.000 NA
ENDROOT
BRANCH   1  15
ATOM     14  C   UNL     1      -4.339   1.486   1.292  1.00  0.00    +0.000 C 
ATOM     15  O   UNL     1      -3.632   0.827   0.250  1.00  0.00    +0.000 OA
ENDBRANCH   1  15
BRANCH   7  16
ATOM     16  O   UNL     1       2.656   0.585   1.553  1.00  0.00    +0.000 OA
ATOM     17  C   UNL     1       3.046  -0.605   2.240  1.00  0.00    +0.000 C 
ENDBRANCH   7  16
BRANCH   2  18
ATOM     18  O   UNL     1      -2.302  -0.005  -1.897  1.00  0.00    +0.000 OA
ATOM     19  C   UNL     1      -2.606  -1.396  -1.986  1.00  0.00    +0.000 C 
ENDBRANCH   2  18
TORSDOF 3
