REMARK  Name = SANCDB_00955_minRM1.pdb
AUTHORGENERATED BY OPEN BABEL 2.3.2
REMARK  4 active torsions:
REMARK  status: ('A' for Active; 'I' for Inactive)
REMARK    1  A    between atoms: C_4  and  C_7
REMARK    2  A    between atoms: C_8  and  O_20
REMARK    3  A    between atoms: C_12  and  O_19
REMARK    4  A    between atoms: C_14  and  O_18
REMARK                            x       y       z     vdW  Elec       q    Type
REMARK                         _______ _______ _______ _____ _____    ______ ____
ROOT
ATOM      1  C   UNL     1       0.686  -0.276   0.244  1.00  0.00    +0.000 C 
ATOM      2  C   UNL     1       0.348  -1.526  -0.568  1.00  0.00    +0.000 C 
ATOM      3  C   UNL     1      -1.122  -1.848  -0.363  1.00  0.00    +0.000 C 
ATOM      4  O   UNL     1      -1.496  -3.019  -0.335  1.00  0.00    +0.000 OA
ATOM      5  C   UNL     1      -2.043  -0.693  -0.232  1.00  0.00    +0.000 A 
ATOM      6  C   UNL     1      -3.438  -0.824  -0.225  1.00  0.00    +0.000 A 
ATOM      7  C   UNL     1      -4.255   0.305  -0.131  1.00  0.00    +0.000 A 
ATOM      8  C   UNL     1      -3.676   1.566  -0.052  1.00  0.00    +0.000 A 
ATOM      9  C   UNL     1      -2.295   1.717  -0.060  1.00  0.00    +0.000 A 
ATOM     10  C   UNL     1      -1.480   0.584  -0.135  1.00  0.00    +0.000 A 
ATOM     11  O   UNL     1      -0.136   0.840  -0.140  1.00  0.00    +0.000 OA
ENDROOT
BRANCH   1  15
ATOM     12  C   UNL     1       4.835   0.861  -0.292  1.00  0.00    +0.000 A 
ATOM     13  C   UNL     1       3.876   1.302  -1.201  1.00  0.00    +0.000 A 
ATOM     14  C   UNL     1       2.537   0.942  -1.034  1.00  0.00    +0.000 A 
ATOM     15  C   UNL     1       2.138   0.142   0.049  1.00  0.00    +0.000 A 
ATOM     16  C   UNL     1       3.119  -0.302   0.951  1.00  0.00    +0.000 A 
ATOM     17  C   UNL     1       4.458   0.058   0.782  1.00  0.00    +0.000 A 
ENDBRANCH   1  15
BRANCH   8  18
ATOM     18  O   UNL     1      -4.509   2.641   0.030  1.00  0.00    +0.000 OA
ATOM     19  H   UNL     1      -3.977   3.453   0.084  1.00  0.00    +0.000 HD
ENDBRANCH   8  18
BRANCH   6  20
ATOM     20  O   UNL     1      -4.028  -2.051  -0.327  1.00  0.00    +0.000 OA
ATOM     21  H   UNL     1      -4.994  -1.967  -0.275  1.00  0.00    +0.000 HD
ENDBRANCH   6  20
BRANCH   2  22
ATOM     22  O   UNL     1       1.109  -2.661  -0.135  1.00  0.00    +0.000 OA
ATOM     23  H   UNL     1       0.569  -3.446  -0.367  1.00  0.00    +0.000 HD
ENDBRANCH   2  22
TORSDOF 4
