REMARK  Name = SANCDB_00987_minRM1.pdb
AUTHORGENERATED BY OPEN BABEL 2.3.2
REMARK  7 active torsions:
REMARK  status: ('A' for Active; 'I' for Inactive)
REMARK    1  A    between atoms: C_1  and  N_2
REMARK    2  A    between atoms: C_5  and  O_11
REMARK    3  A    between atoms: O_11  and  C_12
REMARK    4  A    between atoms: C_12  and  C_14
REMARK    5  A    between atoms: C_14  and  C_15
REMARK    6  A    between atoms: C_14  and  C_17
REMARK    7  A    between atoms: C_15  and  O_16
REMARK                            x       y       z     vdW  Elec       q    Type
REMARK                         _______ _______ _______ _____ _____    ______ ____
ROOT
ATOM      1  C   UNL     1      -0.989   0.728  -0.658  1.00  0.00    +0.000 C 
ATOM      2  O   UNL     1      -0.761   1.854  -0.235  1.00  0.00    +0.000 OA
ENDROOT
BRANCH   1   3
ATOM      3  O   UNL     1      -0.145  -0.338  -0.526  1.00  0.00    +0.000 OA
BRANCH   3   8
ATOM      4  C   UNL     1       5.153  -1.411  -0.397  1.00  0.00    +0.000 C 
ATOM      5  N   UNL     1       3.758  -1.001  -0.280  1.00  0.00    +0.000 NA
ATOM      6  C   UNL     1       3.147  -1.343   1.024  1.00  0.00    +0.000 C 
ATOM      7  C   UNL     1       1.640  -1.409   0.709  1.00  0.00    +0.000 C 
ATOM      8  C   UNL     1       1.110  -0.074   0.131  1.00  0.00    +0.000 C 
ATOM      9  C   UNL     1       2.101   0.605  -0.846  1.00  0.00    +0.000 C 
ATOM     10  C   UNL     1       3.562   0.464  -0.375  1.00  0.00    +0.000 C 
ATOM     11  C   UNL     1       3.703   0.985   1.037  1.00  0.00    +0.000 C 
ATOM     12  C   UNL     1       3.438  -0.169   1.930  1.00  0.00    +0.000 C 
ATOM     13  O   UNL     1       4.734   0.438   1.870  1.00  0.00    +0.000 OA
ENDBRANCH   3   8
ENDBRANCH   1   3
BRANCH   1  14
ATOM     14  C   UNL     1      -2.261   0.302  -1.376  1.00  0.00    +0.000 C 
BRANCH  14  15
ATOM     15  C   UNL     1      -3.429   0.197  -0.409  1.00  0.00    +0.000 A 
ATOM     16  C   UNL     1      -3.953   1.330   0.234  1.00  0.00    +0.000 A 
ATOM     17  C   UNL     1      -5.026   1.213   1.119  1.00  0.00    +0.000 A 
ATOM     18  C   UNL     1      -5.588  -0.036   1.374  1.00  0.00    +0.000 A 
ATOM     19  C   UNL     1      -5.075  -1.169   0.748  1.00  0.00    +0.000 A 
ATOM     20  C   UNL     1      -4.001  -1.055  -0.137  1.00  0.00    +0.000 A 
ENDBRANCH  14  15
BRANCH  14  21
ATOM     21  C   UNL     1      -2.542   1.273  -2.530  1.00  0.00    +0.000 C 
BRANCH  21  22
ATOM     22  O   UNL     1      -1.741   0.949  -3.669  1.00  0.00    +0.000 OA
ATOM     23  H   UNL     1      -2.115   0.147  -4.076  1.00  0.00    +0.000 HD
ENDBRANCH  21  22
ENDBRANCH  14  21
ENDBRANCH   1  14
TORSDOF 6
