REMARK  Name = SANCDB_00820_minRM1.pdb
AUTHORGENERATED BY OPEN BABEL 2.3.2
REMARK  16 active torsions:
REMARK  status: ('A' for Active; 'I' for Inactive)
REMARK    1  A    between atoms: C_1  and  O_2
REMARK    2  A    between atoms: O_2  and  C_3
REMARK    3  A    between atoms: C_7  and  C_8
REMARK    4  A    between atoms: C_12  and  O_13
REMARK    5  A    between atoms: O_13  and  C_14
REMARK    6  A    between atoms: N_18  and  C_47
REMARK    7  A    between atoms: C_22  and  O_37
REMARK    8  A    between atoms: C_23  and  C_36
REMARK    9  A    between atoms: C_25  and  C_34
REMARK   10  A    between atoms: C_28  and  O_29
REMARK   11  A    between atoms: O_37  and  C_38
REMARK   12  A    between atoms: C_38  and  C_40
REMARK   13  A    between atoms: C_40  and  N_41
REMARK   14  A    between atoms: C_40  and  C_46
REMARK   15  A    between atoms: N_41  and  C_45
REMARK   16  A    between atoms: C_42  and  C_44
REMARK                            x       y       z     vdW  Elec       q    Type
REMARK                         _______ _______ _______ _____ _____    ______ ____
ROOT
ATOM      1  C   UNL     1      -1.821  -1.651   1.486  1.00  0.00    +0.000 C 
ATOM      2  C   UNL     1      -3.288  -1.753   1.816  1.00  0.00    +0.000 C 
ATOM      3  C   UNL     1      -4.338  -1.269   1.134  1.00  0.00    +0.000 C 
ATOM      4  C   UNL     1      -4.317  -0.649  -0.168  1.00  0.00    +0.000 C 
ATOM      5  C   UNL     1      -3.964   0.602  -0.524  1.00  0.00    +0.000 C 
ATOM      6  C   UNL     1      -4.106   0.986  -1.981  1.00  0.00    +0.000 C 
ATOM      7  C   UNL     1      -3.538   1.696   0.442  1.00  0.00    +0.000 C 
ATOM      8  C   UNL     1      -2.466   2.637  -0.076  1.00  0.00    +0.000 A 
ATOM      9  C   UNL     1      -2.814   3.733  -0.878  1.00  0.00    +0.000 A 
ATOM     10  C   UNL     1      -1.831   4.572  -1.411  1.00  0.00    +0.000 A 
ATOM     11  C   UNL     1      -0.475   4.327  -1.169  1.00  0.00    +0.000 A 
ATOM     12  C   UNL     1      -0.114   3.254  -0.335  1.00  0.00    +0.000 A 
ATOM     13  C   UNL     1      -1.110   2.425   0.208  1.00  0.00    +0.000 A 
ATOM     14  N   UNL     1       1.232   2.985   0.048  1.00  0.00    +0.000 N 
ATOM     15  C   UNL     1       2.205   2.632  -0.891  1.00  0.00    +0.000 C 
ATOM     16  O   UNL     1       3.393   2.938  -0.768  1.00  0.00    +0.000 OA
ATOM     17  C   UNL     1       1.773   1.697  -2.008  1.00  0.00    +0.000 C 
ATOM     18  C   UNL     1       1.529   0.309  -1.411  1.00  0.00    +0.000 C 
ATOM     19  C   UNL     1       1.082  -0.709  -2.445  1.00  0.00    +0.000 C 
ATOM     20  C   UNL     1      -0.333  -1.279  -2.279  1.00  0.00    +0.000 C 
ATOM     21  C   UNL     1      -0.776  -2.623  -2.809  1.00  0.00    +0.000 C 
ATOM     22  C   UNL     1      -0.980  -3.687  -1.683  1.00  0.00    +0.000 C 
ATOM     23  C   UNL     1      -1.927  -3.285  -0.545  1.00  0.00    +0.000 C 
ATOM     24  C   UNL     1      -1.201  -2.900   0.740  1.00  0.00    +0.000 C 
ATOM     25  N   UNL     1       0.190  -2.653   0.495  1.00  0.00    +0.000 N 
ATOM     26  C   UNL     1       0.958  -3.460  -0.276  1.00  0.00    +0.000 C 
ATOM     27  O   UNL     1       2.174  -3.515  -0.143  1.00  0.00    +0.000 OA
ATOM     28  O   UNL     1       0.294  -4.167  -1.218  1.00  0.00    +0.000 OA
ATOM     29  C   UNL     1      -2.056  -2.455  -3.640  1.00  0.00    +0.000 C 
ATOM     30  O   UNL     1      -0.018  -0.296  -3.273  1.00  0.00    +0.000 OA
ATOM     31  C   UNL     1       2.149  -1.416  -3.229  1.00  0.00    +0.000 C 
ATOM     32  C   UNL     1       1.693   3.705   1.229  1.00  0.00    +0.000 C 
ATOM     33 CL   UNL     1       0.718   5.376  -1.862  1.00  0.00    +0.000 Cl
ATOM     34  H   UNL     1       0.707  -2.147   1.210  1.00  0.00    +0.000 HD
ENDROOT
BRANCH   1  36
ATOM     35  C   UNL     1      -1.021  -0.265   3.282  1.00  0.00    +0.000 C 
ATOM     36  O   UNL     1      -1.122  -1.583   2.760  1.00  0.00    +0.000 OA
ENDBRANCH   1  36
BRANCH  10  37
ATOM     37  O   UNL     1      -2.233   5.592  -2.236  1.00  0.00    +0.000 OA
ATOM     38  C   UNL     1      -2.600   6.739  -1.468  1.00  0.00    +0.000 C 
ENDBRANCH  10  37
BRANCH  24  39
ATOM     39  O   UNL     1      -1.226  -4.016   1.629  1.00  0.00    +0.000 OA
ATOM     40  H   UNL     1      -0.933  -3.646   2.485  1.00  0.00    +0.000 HD
ENDBRANCH  24  39
BRANCH  18  41
ATOM     41  O   UNL     1       2.766  -0.138  -0.811  1.00  0.00    +0.000 OA
BRANCH  41  42
ATOM     42  C   UNL     1       2.751  -0.420   0.523  1.00  0.00    +0.000 C 
ATOM     43  O   UNL     1       1.730  -0.468   1.205  1.00  0.00    +0.000 OA
BRANCH  42  44
ATOM     44  C   UNL     1       4.183  -0.586   1.068  1.00  0.00    +0.000 C 
ATOM     45  C   UNL     1       5.095  -1.339   0.099  1.00  0.00    +0.000 C 
BRANCH  44  46
ATOM     46  N   UNL     1       4.161  -1.190   2.425  1.00  0.00    +0.000 N 
ATOM     47  C   UNL     1       3.935  -0.312   3.486  1.00  0.00    +0.000 C 
ATOM     48  O   UNL     1       3.892   0.911   3.345  1.00  0.00    +0.000 OA
ATOM     49  C   UNL     1       3.744  -0.917   4.855  1.00  0.00    +0.000 C 
ATOM     50  C   UNL     1       3.874  -2.618   2.538  1.00  0.00    +0.000 C 
ENDBRANCH  44  46
ENDBRANCH  42  44
ENDBRANCH  41  42
ENDBRANCH  18  41
TORSDOF 7
