REMARK  Name = SANCDB_01048_minRM1.pdb
AUTHORGENERATED BY OPEN BABEL 2.3.2
REMARK  30 active torsions:
REMARK  status: ('A' for Active; 'I' for Inactive)
REMARK    1  A    between atoms: C_1  and  C_2
REMARK    2  A    between atoms: C_2  and  C_3
REMARK    3  A    between atoms: C_3  and  C_4
REMARK    4  A    between atoms: C_4  and  C_5
REMARK    5  A    between atoms: C_5  and  C_6
REMARK    6  A    between atoms: C_6  and  C_7
REMARK    7  A    between atoms: C_7  and  C_8
REMARK    8  A    between atoms: C_8  and  C_9
REMARK    9  A    between atoms: C_9  and  C_10
REMARK   10  A    between atoms: C_10  and  C_11
REMARK   11  A    between atoms: C_11  and  C_12
REMARK   12  A    between atoms: C_12  and  C_13
REMARK   13  A    between atoms: C_13  and  C_14
REMARK   14  A    between atoms: C_14  and  C_15
REMARK   15  A    between atoms: C_15  and  C_16
REMARK   16  A    between atoms: C_16  and  C_17
REMARK   17  A    between atoms: C_17  and  C_18
REMARK   18  A    between atoms: C_18  and  C_19
REMARK   19  A    between atoms: C_19  and  C_20
REMARK   20  A    between atoms: C_20  and  C_21
REMARK   21  A    between atoms: C_21  and  C_22
REMARK   22  A    between atoms: C_22  and  C_23
REMARK   23  A    between atoms: C_23  and  C_24
REMARK   24  A    between atoms: C_24  and  C_25
REMARK   25  A    between atoms: C_25  and  C_26
REMARK   26  A    between atoms: C_26  and  C_27
REMARK   27  A    between atoms: C_27  and  C_28
REMARK   28  A    between atoms: C_28  and  C_29
REMARK   29  A    between atoms: C_29  and  C_30
REMARK   30  A    between atoms: C_30  and  O_31
REMARK                            x       y       z     vdW  Elec       q    Type
REMARK                         _______ _______ _______ _____ _____    ______ ____
ROOT
ATOM      1  C   UNL     1      -1.318   4.872  -3.282  1.00  0.00    +0.000 C 
ENDROOT
BRANCH   1   2
ATOM      2  C   UNL     1      -2.202   5.652  -2.301  1.00  0.00    +0.000 C 
BRANCH   2   3
ATOM      3  C   UNL     1      -2.061   5.247  -0.829  1.00  0.00    +0.000 C 
BRANCH   3   4
ATOM      4  C   UNL     1      -3.143   4.285  -0.325  1.00  0.00    +0.000 C 
BRANCH   4   5
ATOM      5  C   UNL     1      -3.090   2.895  -0.961  1.00  0.00    +0.000 C 
BRANCH   5   6
ATOM      6  C   UNL     1      -4.069   1.940  -0.273  1.00  0.00    +0.000 C 
BRANCH   6   7
ATOM      7  C   UNL     1      -4.144   0.553  -0.923  1.00  0.00    +0.000 C 
BRANCH   7   8
ATOM      8  C   UNL     1      -2.810  -0.199  -0.899  1.00  0.00    +0.000 C 
BRANCH   8   9
ATOM      9  C   UNL     1      -2.918  -1.649  -1.381  1.00  0.00    +0.000 C 
BRANCH   9  10
ATOM     10  C   UNL     1      -3.651  -2.609  -0.435  1.00  0.00    +0.000 C 
BRANCH  10  11
ATOM     11  C   UNL     1      -2.746  -3.355   0.555  1.00  0.00    +0.000 C 
BRANCH  11  12
ATOM     12  C   UNL     1      -2.038  -2.507   1.612  1.00  0.00    +0.000 C 
BRANCH  12  13
ATOM     13  C   UNL     1      -3.000  -1.758   2.537  1.00  0.00    +0.000 C 
BRANCH  13  14
ATOM     14  C   UNL     1      -2.235  -0.967   3.604  1.00  0.00    +0.000 C 
BRANCH  14  15
ATOM     15  C   UNL     1      -3.166  -0.153   4.495  1.00  0.00    +0.000 C 
BRANCH  15  16
ATOM     16  O   UNL     1      -4.069  -0.997   5.196  1.00  0.00    +0.000 OA
ATOM     17  H   UNL     1      -3.540  -1.629   5.714  1.00  0.00    +0.000 HD
ENDBRANCH  15  16
ENDBRANCH  14  15
ENDBRANCH  13  14
ENDBRANCH  12  13
ENDBRANCH  11  12
ENDBRANCH  10  11
ENDBRANCH   9  10
ENDBRANCH   8   9
ENDBRANCH   7   8
ENDBRANCH   6   7
ENDBRANCH   5   6
ENDBRANCH   4   5
ENDBRANCH   3   4
ENDBRANCH   2   3
ENDBRANCH   1   2
BRANCH   1  18
ATOM     18  C   UNL     1       0.178   5.148  -3.098  1.00  0.00    +0.000 C 
BRANCH  18  19
ATOM     19  C   UNL     1       1.046   4.610  -4.239  1.00  0.00    +0.000 C 
BRANCH  19  20
ATOM     20  C   UNL     1       0.948   3.112  -4.550  1.00  0.00    +0.000 C 
BRANCH  20  21
ATOM     21  C   UNL     1       1.526   2.174  -3.483  1.00  0.00    +0.000 C 
BRANCH  21  22
ATOM     22  C   UNL     1       0.512   1.764  -2.414  1.00  0.00    +0.000 C 
BRANCH  22  23
ATOM     23  C   UNL     1       1.045   0.716  -1.432  1.00  0.00    +0.000 C 
BRANCH  23  24
ATOM     24  C   UNL     1       1.223  -0.667  -2.066  1.00  0.00    +0.000 C 
BRANCH  24  25
ATOM     25  C   UNL     1       1.477  -1.773  -1.038  1.00  0.00    +0.000 C 
BRANCH  25  26
ATOM     26  C   UNL     1       2.805  -1.618  -0.294  1.00  0.00    +0.000 C 
BRANCH  26  27
ATOM     27  C   UNL     1       3.036  -2.780   0.674  1.00  0.00    +0.000 C 
BRANCH  27  28
ATOM     28  C   UNL     1       4.372  -2.635   1.405  1.00  0.00    +0.000 C 
BRANCH  28  29
ATOM     29  C   UNL     1       4.599  -3.786   2.386  1.00  0.00    +0.000 C 
BRANCH  29  30
ATOM     30  C   UNL     1       5.946  -3.649   3.099  1.00  0.00    +0.000 C 
BRANCH  30  32
ATOM     31  C   UNL     1       7.514  -4.662   4.791  1.00  0.00    +0.000 C 
ATOM     32  C   UNL     1       6.171  -4.792   4.090  1.00  0.00    +0.000 C 
ENDBRANCH  30  32
ENDBRANCH  29  30
ENDBRANCH  28  29
ENDBRANCH  27  28
ENDBRANCH  26  27
ENDBRANCH  25  26
ENDBRANCH  24  25
ENDBRANCH  23  24
ENDBRANCH  22  23
ENDBRANCH  21  22
ENDBRANCH  20  21
ENDBRANCH  19  20
ENDBRANCH  18  19
ENDBRANCH   1  18
TORSDOF 29
