REMARK  Name = SANCDB_00968_minRM1.pdb
AUTHORGENERATED BY OPEN BABEL 2.3.2
REMARK  0 active torsions:
REMARK  status: ('A' for Active; 'I' for Inactive)
REMARK                            x       y       z     vdW  Elec       q    Type
REMARK                         _______ _______ _______ _____ _____    ______ ____
ROOT
ATOM      1  C   UNL     1       2.511   1.314  -1.025  1.00  0.00    +0.000 C 
ATOM      2  C   UNL     1       2.810  -0.019  -1.713  1.00  0.00    +0.000 C 
ATOM      3  C   UNL     1       2.167  -1.225  -1.020  1.00  0.00    +0.000 C 
ATOM      4  N   UNL     1       1.038  -0.802  -0.199  1.00  0.00    +0.000 NA
ATOM      5  C   UNL     1       0.196  -1.921   0.241  1.00  0.00    +0.000 C 
ATOM      6  C   UNL     1      -1.014  -1.441   1.083  1.00  0.00    +0.000 C 
ATOM      7  C   UNL     1      -0.521  -0.648   2.292  1.00  0.00    +0.000 C 
ATOM      8  C   UNL     1       0.266   0.548   1.756  1.00  0.00    +0.000 C 
ATOM      9  C   UNL     1       1.477   0.032   0.933  1.00  0.00    +0.000 C 
ATOM     10  C   UNL     1       2.436   1.160   0.490  1.00  0.00    +0.000 C 
ATOM     11  C   UNL     1      -0.695   1.453   0.967  1.00  0.00    +0.000 C 
ATOM     12  N   UNL     1      -1.746   0.794   0.187  1.00  0.00    +0.000 N 
ATOM     13  C   UNL     1      -1.957  -0.586   0.253  1.00  0.00    +0.000 A 
ATOM     14  C   UNL     1      -2.986  -1.139  -0.413  1.00  0.00    +0.000 A 
ATOM     15  C   UNL     1      -3.864  -0.333  -1.219  1.00  0.00    +0.000 A 
ATOM     16  C   UNL     1      -3.678   0.987  -1.310  1.00  0.00    +0.000 A 
ATOM     17  C   UNL     1      -2.570   1.638  -0.564  1.00  0.00    +0.000 A 
ATOM     18  O   UNL     1      -2.447   2.860  -0.632  1.00  0.00    +0.000 OA
ENDROOT
TORSDOF 0
