REMARK  Name = /srv/my_project/app/compsite/backup/Dave/CORINA_stuff/newPDBs/SANC00700.pdb
AUTHORGENERATED BY OPEN BABEL 2.3.2
REMARK  9 active torsions:
REMARK  status: ('A' for Active; 'I' for Inactive)
REMARK    1  A    between atoms: C_5  and  O_7
REMARK    2  A    between atoms: C_8  and  C_9
REMARK    3  A    between atoms: C_8  and  C_10
REMARK    4  A    between atoms: C_16  and  C_17
REMARK    5  A    between atoms: C_20  and  C_21
REMARK    6  A    between atoms: C_25  and  C_26
REMARK    7  A    between atoms: C_25  and  C_27
REMARK    8  A    between atoms: C_30  and  C_31
REMARK    9  A    between atoms: C_34  and  C_35
REMARK                            x       y       z     vdW  Elec       q    Type
REMARK                         _______ _______ _______ _____ _____    ______ ____
ROOT
ATOM      1  C   UNL     1      -2.843  -0.980  -0.398  1.00  0.00    +0.000 C 
ATOM      2  C   UNL     1      -3.550  -1.949  -1.364  1.00  0.00    +0.000 C 
ATOM      3  C   UNL     1      -4.650  -2.768  -0.690  1.00  0.00    +0.000 C 
ATOM      4  C   UNL     1      -5.205  -2.130   0.586  1.00  0.00    +0.000 C 
ATOM      5  C   UNL     1      -5.266  -0.572   0.538  1.00  0.00    +0.000 C 
ATOM      6  C   UNL     1      -6.271  -0.079  -0.526  1.00  0.00    +0.000 C 
ATOM      7  C   UNL     1      -5.775  -0.083   1.918  1.00  0.00    +0.000 C 
ATOM      8  C   UNL     1      -3.861  -0.009   0.219  1.00  0.00    +0.000 C 
ATOM      9  C   UNL     1      -3.515   1.267   0.492  1.00  0.00    +0.000 C 
ATOM     10  C   UNL     1      -2.139   1.846   0.306  1.00  0.00    +0.000 C 
ATOM     11  C   UNL     1      -1.067   0.760   0.059  1.00  0.00    +0.000 C 
ATOM     12  C   UNL     1      -1.580  -0.251  -1.037  1.00  0.00    +0.000 C 
ATOM     13  C   UNL     1      -2.004   0.429  -2.368  1.00  0.00    +0.000 C 
ATOM     14  C   UNL     1      -0.492  -1.304  -1.373  1.00  0.00    +0.000 C 
ATOM     15  C   UNL     1       0.935  -0.755  -1.513  1.00  0.00    +0.000 C 
ATOM     16  C   UNL     1       1.417   0.056  -0.270  1.00  0.00    +0.000 C 
ATOM     17  C   UNL     1       1.371  -0.922   0.932  1.00  0.00    +0.000 C 
ATOM     18  C   UNL     1       2.904   0.590  -0.467  1.00  0.00    +0.000 C 
ATOM     19  C   UNL     1       4.000  -0.490  -0.749  1.00  0.00    +0.000 C 
ATOM     20  C   UNL     1       4.997  -0.924   0.364  1.00  0.00    +0.000 C 
ATOM     21  C   UNL     1       4.463  -2.093   1.214  1.00  0.00    +0.000 C 
ATOM     22  C   UNL     1       6.280  -1.450  -0.327  1.00  0.00    +0.000 C 
ATOM     23  C   UNL     1       5.387   0.237   1.287  1.00  0.00    +0.000 C 
ATOM     24  C   UNL     1       4.197   1.084   1.723  1.00  0.00    +0.000 C 
ATOM     25  C   UNL     1       3.396   1.693   0.544  1.00  0.00    +0.000 C 
ATOM     26  C   UNL     1       4.361   2.651  -0.223  1.00  0.00    +0.000 C 
ATOM     27  C   UNL     1       2.276   2.601   1.136  1.00  0.00    +0.000 C 
ATOM     28  C   UNL     1       0.858   2.032   1.201  1.00  0.00    +0.000 C 
ATOM     29  C   UNL     1       0.422   1.286  -0.089  1.00  0.00    +0.000 C 
ATOM     30  C   UNL     1       0.515   2.315  -1.255  1.00  0.00    +0.000 C 
ENDROOT
BRANCH   4  31
ATOM     31  O   UNL     1      -6.472  -2.722   0.878  1.00  0.00    +0.000 OA
ATOM     32  H   UNL     1      -7.053  -2.593   0.109  1.00  0.00    +0.000 HD
ENDBRANCH   4  31
TORSDOF 1
