REMARK  Name = /srv/my_project/app/compsite/backup/Dave/CORINA_stuff/newPDBs/SANC00603.pdb
AUTHORGENERATED BY OPEN BABEL 2.3.2
REMARK  8 active torsions:
REMARK  status: ('A' for Active; 'I' for Inactive)
REMARK    1  A    between atoms: C_7  and  C_8
REMARK    2  A    between atoms: C_13  and  C_14
REMARK    3  A    between atoms: C_15  and  C_16
REMARK    4  A    between atoms: C_24  and  N_26
REMARK    5  A    between atoms: N_26  and  C_27
REMARK    6  A    between atoms: N_26  and  C_28
REMARK    7  A    between atoms: C_29  and  C_30
REMARK    8  A    between atoms: C_29  and  C_31
REMARK                            x       y       z     vdW  Elec       q    Type
REMARK                         _______ _______ _______ _____ _____    ______ ____
ROOT
ATOM      1  C   UNL     1       1.628   0.709   0.801  1.00  0.00    +0.000 C 
ATOM      2  C   UNL     1       0.769   0.933   2.055  1.00  0.00    +0.000 C 
ATOM      3  C   UNL     1      -0.614   1.443   1.660  1.00  0.00    +0.000 C 
ATOM      4  C   UNL     1      -1.409   0.346   0.943  1.00  0.00    +0.000 C 
ATOM      5  C   UNL     1      -2.849   0.775   0.565  1.00  0.00    +0.000 C 
ATOM      6  C   UNL     1      -2.842   2.143  -0.196  1.00  0.00    +0.000 C 
ATOM      7  C   UNL     1      -3.784   0.956   1.786  1.00  0.00    +0.000 C 
ATOM      8  C   UNL     1      -5.138   0.726   1.161  1.00  0.00    +0.000 C 
ATOM      9  O   UNL     1      -6.203   1.042   1.667  1.00  0.00    +0.000 OA
ATOM     10  C   UNL     1      -4.993   0.013  -0.160  1.00  0.00    +0.000 C 
ATOM     11  C   UNL     1      -6.050  -0.123  -0.974  1.00  0.00    +0.000 C 
ATOM     12  C   UNL     1      -6.106  -0.829  -2.286  1.00  0.00    +0.000 C 
ATOM     13  C   UNL     1      -3.529  -0.381  -0.250  1.00  0.00    +0.000 C 
ATOM     14  C   UNL     1      -3.439  -1.788   0.402  1.00  0.00    +0.000 C 
ATOM     15  C   UNL     1      -2.866  -0.451  -1.629  1.00  0.00    +0.000 C 
ATOM     16  C   UNL     1      -1.336  -0.282  -1.614  1.00  0.00    +0.000 C 
ATOM     17  C   UNL     1      -0.628  -0.249  -0.255  1.00  0.00    +0.000 C 
ATOM     18  C   UNL     1       0.246  -1.445   0.095  1.00  0.00    +0.000 C 
ATOM     19  C   UNL     1       0.925  -0.149  -0.263  1.00  0.00    +0.000 C 
ATOM     20  C   UNL     1       1.684  -0.120  -1.579  1.00  0.00    +0.000 C 
ATOM     21  C   UNL     1       3.112  -0.623  -1.391  1.00  0.00    +0.000 C 
ATOM     22  C   UNL     1       3.869   0.187  -0.317  1.00  0.00    +0.000 C 
ATOM     23  C   UNL     1       3.103   0.219   1.070  1.00  0.00    +0.000 C 
ATOM     24  C   UNL     1       3.816   1.234   2.002  1.00  0.00    +0.000 C 
ATOM     25  C   UNL     1       3.131  -1.146   1.787  1.00  0.00    +0.000 C 
ENDROOT
BRANCH  22  26
ATOM     26  N   UNL     1       5.305  -0.172  -0.175  1.00  0.00    +0.000 NA
ATOM     27  C   UNL     1       6.155   0.689  -1.003  1.00  0.00    +0.000 C 
ATOM     28  C   UNL     1       5.639  -1.573  -0.429  1.00  0.00    +0.000 C 
ENDBRANCH  22  26
TORSDOF 1
