REMARK  Name = /srv/my_project/app/compsite/backup/Dave/CORINA_stuff/newPDBs/SANC00181.pdb
AUTHORGENERATED BY OPEN BABEL 2.3.2
REMARK  3 active torsions:
REMARK  status: ('A' for Active; 'I' for Inactive)
REMARK    1  A    between atoms: C_1  and  C_2
REMARK    2  A    between atoms: C_7  and  C_9
REMARK    3  A    between atoms: C_10  and  C_11
REMARK                            x       y       z     vdW  Elec       q    Type
REMARK                         _______ _______ _______ _____ _____    ______ ____
ROOT
ATOM      1  C   UNL     1      -1.903  -1.177  -2.198  1.00  0.00    +0.000 C 
ATOM      2  C   UNL     1      -0.967  -0.314  -1.395  1.00  0.00    +0.000 C 
ATOM      3  C   UNL     1       0.059   0.312  -2.005  1.00  0.00    +0.000 C 
ATOM      4  C   UNL     1       1.049   1.147  -1.237  1.00  0.00    +0.000 C 
ATOM      5  C   UNL     1       0.248   1.982  -0.238  1.00  0.00    +0.000 C 
ATOM      6  C   UNL     1      -0.544   1.110   0.764  1.00  0.00    +0.000 C 
ATOM      7  C   UNL     1      -1.575   2.025   1.446  1.00  0.00    +0.000 C 
ATOM      8  C   UNL     1      -1.107  -0.253   0.142  1.00  0.00    +0.000 C 
ATOM      9  C   UNL     1      -2.589  -0.459   0.557  1.00  0.00    +0.000 C 
ATOM     10  C   UNL     1      -0.312  -1.466   0.765  1.00  0.00    +0.000 C 
ATOM     11  C   UNL     1       1.030  -1.886   0.140  1.00  0.00    +0.000 C 
ATOM     12  C   UNL     1       2.118  -0.864   0.113  1.00  0.00    +0.000 A 
ATOM     13  C   UNL     1       3.416  -0.983   0.688  1.00  0.00    +0.000 A 
ATOM     14  C   UNL     1       4.091   0.173   0.379  1.00  0.00    +0.000 A 
ATOM     15  O   UNL     1       3.304   1.003  -0.346  1.00  0.00    +0.000 OA
ATOM     16  C   UNL     1       2.107   0.373  -0.513  1.00  0.00    +0.000 A 
ENDROOT
TORSDOF 0
