REMARK  Name = /srv/my_project/app/compsite/backup/Dave/CORINA_stuff/newPDBs/SANC00411.pdb
AUTHORGENERATED BY OPEN BABEL 2.3.2
REMARK  11 active torsions:
REMARK  status: ('A' for Active; 'I' for Inactive)
REMARK    1  A    between atoms: C_1  and  C_2
REMARK    2  A    between atoms: C_2  and  C_4
REMARK    3  A    between atoms: C_4  and  C_5
REMARK    4  A    between atoms: C_10  and  C_11
REMARK    5  A    between atoms: C_13  and  O_14
REMARK    6  A    between atoms: C_15  and  C_16
REMARK    7  A    between atoms: C_19  and  C_20
REMARK    8  A    between atoms: C_20  and  O_21
REMARK    9  A    between atoms: C_22  and  O_24
REMARK   10  A    between atoms: C_25  and  O_27
REMARK   11  A    between atoms: C_28  and  O_30
REMARK                            x       y       z     vdW  Elec       q    Type
REMARK                         _______ _______ _______ _____ _____    ______ ____
ROOT
ATOM      1  C   UNL     1       2.764  -0.548  -0.272  1.00  0.00    +0.000 A 
ATOM      2  C   UNL     1       3.402  -1.719  -0.173  1.00  0.00    +0.000 A 
ATOM      3  C   UNL     1       2.652  -2.926   0.203  1.00  0.00    +0.000 A 
ATOM      4  O   UNL     1       3.252  -3.988   0.305  1.00  0.00    +0.000 OA
ATOM      5  C   UNL     1       1.195  -2.769   0.440  1.00  0.00    +0.000 A 
ATOM      6  C   UNL     1       0.368  -3.858   0.781  1.00  0.00    +0.000 A 
ATOM      7  C   UNL     1       0.881  -5.265   0.929  1.00  0.00    +0.000 C 
ATOM      8  C   UNL     1      -0.998  -3.623   0.995  1.00  0.00    +0.000 A 
ATOM      9  C   UNL     1      -1.528  -2.338   0.873  1.00  0.00    +0.000 A 
ATOM     10  C   UNL     1      -0.726  -1.241   0.531  1.00  0.00    +0.000 A 
ATOM     11  C   UNL     1       0.648  -1.478   0.315  1.00  0.00    +0.000 A 
ATOM     12  O   UNL     1       1.418  -0.385  -0.018  1.00  0.00    +0.000 OA
ENDROOT
BRANCH  10  13
ATOM     13  C   UNL     1      -1.339   0.151   0.430  1.00  0.00    +0.000 C 
ATOM     14  O   UNL     1      -1.005   0.689  -0.866  1.00  0.00    +0.000 OA
ATOM     15  C   UNL     1      -1.589   1.967  -1.152  1.00  0.00    +0.000 C 
ATOM     16  C   UNL     1      -1.204   2.999  -0.081  1.00  0.00    +0.000 C 
ATOM     17  C   UNL     1      -1.455   2.485   1.341  1.00  0.00    +0.000 C 
ATOM     18  C   UNL     1      -0.851   1.095   1.551  1.00  0.00    +0.000 C 
BRANCH  16  19
ATOM     19  O   UNL     1      -1.897   4.242  -0.256  1.00  0.00    +0.000 OA
ATOM     20  H   UNL     1      -1.514   4.681  -1.038  1.00  0.00    +0.000 HD
ENDBRANCH  16  19
BRANCH  17  21
ATOM     21  O   UNL     1      -0.863   3.397   2.289  1.00  0.00    +0.000 OA
ATOM     22  H   UNL     1      -1.241   4.272   2.071  1.00  0.00    +0.000 HD
ENDBRANCH  17  21
BRANCH  18  23
ATOM     23  O   UNL     1      -1.219   0.632   2.858  1.00  0.00    +0.000 OA
ATOM     24  H   UNL     1      -1.028   1.378   3.458  1.00  0.00    +0.000 HD
ENDBRANCH  18  23
BRANCH  15  25
ATOM     25  C   UNL     1      -3.090   1.865  -1.485  1.00  0.00    +0.000 C 
BRANCH  25  26
ATOM     26  O   UNL     1      -3.929   1.958  -0.341  1.00  0.00    +0.000 OA
ATOM     27  H   UNL     1      -3.997   2.905  -0.113  1.00  0.00    +0.000 HD
ENDBRANCH  25  26
ENDBRANCH  15  25
ENDBRANCH  10  13
BRANCH   9  28
ATOM     28  O   UNL     1      -2.865  -2.148   1.089  1.00  0.00    +0.000 OA
ATOM     29  H   UNL     1      -3.259  -2.969   1.427  1.00  0.00    +0.000 HD
ENDBRANCH   9  28
BRANCH   1  30
ATOM     30  C   UNL     1       3.470   0.723  -0.636  1.00  0.00    +0.000 C 
BRANCH  30  32
ATOM     31  C   UNL     1       2.021   1.458  -2.648  1.00  0.00    +0.000 C 
ATOM     32  C   UNL     1       3.350   0.975  -2.127  1.00  0.00    +0.000 C 
ATOM     33  O   UNL     1       4.293   0.764  -2.890  1.00  0.00    +0.000 OA
ENDBRANCH  30  32
ENDBRANCH   1  30
TORSDOF 9
