REMARK  Name = SANCDB_01109_minRM1.pdb
AUTHORGENERATED BY OPEN BABEL 2.3.2
REMARK  8 active torsions:
REMARK  status: ('A' for Active; 'I' for Inactive)
REMARK    1  A    between atoms: C_1  and  C_2
REMARK    2  A    between atoms: C_2  and  C_3
REMARK    3  A    between atoms: C_2  and  C_4
REMARK    4  A    between atoms: C_5  and  O_25
REMARK    5  A    between atoms: C_6  and  O_24
REMARK    6  A    between atoms: C_10  and  O_23
REMARK    7  A    between atoms: C_17  and  C_18
REMARK    8  A    between atoms: C_17  and  C_19
REMARK                            x       y       z     vdW  Elec       q    Type
REMARK                         _______ _______ _______ _____ _____    ______ ____
ROOT
ATOM      1  C   UNL     1       3.183   0.061  -0.029  1.00  0.00    +0.000 A 
ATOM      2  C   UNL     1       2.679   1.222   0.566  1.00  0.00    +0.000 A 
ATOM      3  C   UNL     1       1.312   1.374   0.858  1.00  0.00    +0.000 A 
ATOM      4  C   UNL     1       0.388   0.361   0.600  1.00  0.00    +0.000 A 
ATOM      5  C   UNL     1       0.891  -0.839   0.031  1.00  0.00    +0.000 A 
ATOM      6  C   UNL     1       2.264  -0.972  -0.269  1.00  0.00    +0.000 A 
ATOM      7  C   UNL     1      -0.041  -2.006  -0.266  1.00  0.00    +0.000 C 
ATOM      8  C   UNL     1      -1.523  -1.699   0.072  1.00  0.00    +0.000 C 
ATOM      9  C   UNL     1      -1.870  -0.247  -0.268  1.00  0.00    +0.000 C 
ATOM     10  C   UNL     1      -1.118   0.417   0.919  1.00  0.00    +0.000 C 
ATOM     11  C   UNL     1      -1.726   1.771   1.307  1.00  0.00    +0.000 C 
ATOM     12  C   UNL     1      -3.236   1.761   1.562  1.00  0.00    +0.000 C 
ATOM     13  C   UNL     1      -3.987   0.590   0.938  1.00  0.00    +0.000 C 
ATOM     14  C   UNL     1      -3.391   0.119  -0.399  1.00  0.00    +0.000 C 
ATOM     15  C   UNL     1      -3.539   1.253  -1.447  1.00  0.00    +0.000 C 
ATOM     16  C   UNL     1      -4.242  -1.058  -0.920  1.00  0.00    +0.000 C 
ATOM     17  C   UNL     1      -1.376  -0.596   2.042  1.00  0.00    +0.000 C 
ATOM     18  O   UNL     1      -1.296  -0.412   3.246  1.00  0.00    +0.000 OA
ATOM     19  O   UNL     1      -1.717  -1.803   1.485  1.00  0.00    +0.000 OA
ENDROOT
BRANCH   1  21
ATOM     20  C   UNL     1       5.408  -0.768   0.762  1.00  0.00    +0.000 C 
ATOM     21  C   UNL     1       4.651  -0.102  -0.390  1.00  0.00    +0.000 C 
ATOM     22  C   UNL     1       4.896  -0.864  -1.699  1.00  0.00    +0.000 C 
ENDBRANCH   1  21
BRANCH   7  23
ATOM     23  O   UNL     1       0.074  -2.314  -1.656  1.00  0.00    +0.000 OA
ATOM     24  H   UNL     1      -0.328  -3.189  -1.791  1.00  0.00    +0.000 HD
ENDBRANCH   7  23
BRANCH   3  25
ATOM     25  O   UNL     1       0.931   2.562   1.418  1.00  0.00    +0.000 OA
ATOM     26  H   UNL     1       1.761   3.077   1.492  1.00  0.00    +0.000 HD
ENDBRANCH   3  25
BRANCH   2  27
ATOM     27  O   UNL     1       3.470   2.291   0.918  1.00  0.00    +0.000 OA
ATOM     28  H   UNL     1       4.391   1.990   0.972  1.00  0.00    +0.000 HD
ENDBRANCH   2  27
TORSDOF 4
