REMARK  Name = /srv/my_project/app/compsite/backup/Dave/CORINA_stuff/newPDBs/SANC00347.pdb
AUTHORGENERATED BY OPEN BABEL 2.3.2
REMARK  6 active torsions:
REMARK  status: ('A' for Active; 'I' for Inactive)
REMARK    1  A    between atoms: C_1  and  C_2
REMARK    2  A    between atoms: C_2  and  C_3
REMARK    3  A    between atoms: C_20  and  C_21
REMARK    4  A    between atoms: C_20  and  C_22
REMARK    5  A    between atoms: C_26  and  O_27
REMARK    6  A    between atoms: C_31  and  O_32
REMARK                            x       y       z     vdW  Elec       q    Type
REMARK                         _______ _______ _______ _____ _____    ______ ____
ROOT
ATOM      1  C   UNL     1       7.886   0.882   0.175  1.00  0.00    +0.000 C 
ATOM      2  C   UNL     1       6.906  -0.130  -0.430  1.00  0.00    +0.000 C 
ATOM      3  C   UNL     1       7.594  -0.901  -1.563  1.00  0.00    +0.000 C 
ATOM      4  C   UNL     1       6.470  -1.104   0.641  1.00  0.00    +0.000 C 
ATOM      5  C   UNL     1       5.204  -1.237   1.047  1.00  0.00    +0.000 C 
ATOM      6  C   UNL     1       4.196  -0.396   0.423  1.00  0.00    +0.000 A 
ATOM      7  C   UNL     1       2.858  -0.477   0.839  1.00  0.00    +0.000 A 
ATOM      8  C   UNL     1       1.929   0.334   0.211  1.00  0.00    +0.000 A 
ATOM      9  C   UNL     1       2.315   1.210  -0.807  1.00  0.00    +0.000 A 
ATOM     10  C   UNL     1       3.624   1.321  -1.218  1.00  0.00    +0.000 A 
ATOM     11  C   UNL     1       4.572   0.503  -0.595  1.00  0.00    +0.000 A 
ATOM     12  O   UNL     1       5.854   0.639  -1.048  1.00  0.00    +0.000 OA
ATOM     13  O   UNL     1       1.263   1.933  -1.338  1.00  0.00    +0.000 OA
ATOM     14  C   UNL     1       0.135   1.123  -0.917  1.00  0.00    +0.000 C 
ATOM     15  O   UNL     1      -1.132   1.786  -0.889  1.00  0.00    +0.000 OA
ATOM     16  C   UNL     1      -2.117   0.917  -0.458  1.00  0.00    +0.000 A 
ATOM     17  C   UNL     1      -3.424   1.271  -0.777  1.00  0.00    +0.000 A 
ATOM     18  C   UNL     1      -4.485   0.435  -0.413  1.00  0.00    +0.000 A 
ATOM     19  O   UNL     1      -5.724   0.871  -0.792  1.00  0.00    +0.000 OA
ATOM     20  C   UNL     1      -6.888   0.115  -0.401  1.00  0.00    +0.000 C 
ATOM     21  C   UNL     1      -7.711   1.022   0.520  1.00  0.00    +0.000 C 
ATOM     22  C   UNL     1      -7.670  -0.160  -1.691  1.00  0.00    +0.000 C 
ATOM     23  C   UNL     1      -6.612  -1.193   0.301  1.00  0.00    +0.000 C 
ATOM     24  C   UNL     1      -5.384  -1.611   0.618  1.00  0.00    +0.000 C 
ATOM     25  C   UNL     1      -4.250  -0.763   0.274  1.00  0.00    +0.000 A 
ATOM     26  C   UNL     1      -2.932  -1.113   0.611  1.00  0.00    +0.000 A 
ATOM     27  C   UNL     1      -1.870  -0.269   0.260  1.00  0.00    +0.000 A 
ATOM     28  C   UNL     1      -0.470  -0.580   0.658  1.00  0.00    +0.000 C 
ATOM     29  O   UNL     1      -0.191  -1.667   1.158  1.00  0.00    +0.000 OA
ATOM     30  C   UNL     1       0.485   0.561   0.471  1.00  0.00    +0.000 C 
ENDROOT
BRANCH  26  31
ATOM     31  O   UNL     1      -2.721  -2.289   1.292  1.00  0.00    +0.000 OA
ATOM     32  H   UNL     1      -1.756  -2.411   1.433  1.00  0.00    +0.000 HD
ENDBRANCH  26  31
BRANCH  30  33
ATOM     33  O   UNL     1       0.346   1.497   1.538  1.00  0.00    +0.000 OA
ATOM     34  H   UNL     1       0.966   1.234   2.241  1.00  0.00    +0.000 HD
ENDBRANCH  30  33
TORSDOF 2
