REMARK  Name = /srv/my_project/app/compsite/backup/Dave/CORINA_stuff/newPDBs/SANC00381.pdb
AUTHORGENERATED BY OPEN BABEL 2.3.2
REMARK  6 active torsions:
REMARK  status: ('A' for Active; 'I' for Inactive)
REMARK    1  A    between atoms: C_15  and  O_16
REMARK    2  A    between atoms: O_16  and  C_17
REMARK    3  A    between atoms: N_22  and  C_23
REMARK    4  A    between atoms: C_38  and  O_39
REMARK    5  A    between atoms: O_39  and  C_40
REMARK    6  A    between atoms: N_45  and  C_46
REMARK                            x       y       z     vdW  Elec       q    Type
REMARK                         _______ _______ _______ _____ _____    ______ ____
ROOT
ATOM      1  C   UNL     1      -3.645  -2.178  -0.647  1.00  0.00    +0.000 C 
ATOM      2  C   UNL     1      -2.146  -2.541  -0.472  1.00  0.00    +0.000 C 
ATOM      3  C   UNL     1      -1.186  -1.932   0.529  1.00  0.00    +0.000 A 
ATOM      4  C   UNL     1      -1.267  -0.629   1.014  1.00  0.00    +0.000 A 
ATOM      5  C   UNL     1      -0.124   0.006   1.510  1.00  0.00    +0.000 A 
ATOM      6  C   UNL     1       1.106  -0.658   1.546  1.00  0.00    +0.000 A 
ATOM      7  O   UNL     1       2.204   0.166   1.713  1.00  0.00    +0.000 OA
ATOM      8  C   UNL     1       3.400  -0.213   1.138  1.00  0.00    +0.000 A 
ATOM      9  C   UNL     1       4.020  -1.397   1.581  1.00  0.00    +0.000 A 
ATOM     10  O   UNL     1       3.325  -2.239   2.418  1.00  0.00    +0.000 OA
ATOM     11  C   UNL     1       2.335  -2.899   1.625  1.00  0.00    +0.000 C 
ATOM     12  C   UNL     1       1.135  -2.036   1.339  1.00  0.00    +0.000 A 
ATOM     13  C   UNL     1      -0.005  -2.650   0.791  1.00  0.00    +0.000 A 
ATOM     14  C   UNL     1       5.309  -1.778   1.179  1.00  0.00    +0.000 A 
ATOM     15  C   UNL     1       5.998  -0.953   0.302  1.00  0.00    +0.000 A 
ATOM     16  C   UNL     1       5.397   0.226  -0.160  1.00  0.00    +0.000 A 
ATOM     17  C   UNL     1       6.155   1.158  -1.078  1.00  0.00    +0.000 C 
ATOM     18  C   UNL     1       5.964   2.614  -0.618  1.00  0.00    +0.000 C 
ATOM     19  N   UNL     1       4.589   2.998  -0.228  1.00  0.00    +0.000 NA
ATOM     20  C   UNL     1       4.563   3.517   1.142  1.00  0.00    +0.000 C 
ATOM     21  C   UNL     1       3.598   1.897  -0.457  1.00  0.00    +0.000 C 
ATOM     22  C   UNL     1       2.155   2.434  -0.280  1.00  0.00    +0.000 C 
ATOM     23  C   UNL     1       1.024   1.836  -1.102  1.00  0.00    +0.000 A 
ATOM     24  C   UNL     1       1.030   0.550  -1.644  1.00  0.00    +0.000 A 
ATOM     25  C   UNL     1      -0.151  -0.006  -2.159  1.00  0.00    +0.000 A 
ATOM     26  C   UNL     1      -1.355   0.706  -2.127  1.00  0.00    +0.000 A 
ATOM     27  O   UNL     1      -2.505  -0.036  -2.379  1.00  0.00    +0.000 OA
ATOM     28  C   UNL     1      -3.586   0.240  -1.554  1.00  0.00    +0.000 A 
ATOM     29  C   UNL     1      -4.179   1.510  -1.633  1.00  0.00    +0.000 A 
ATOM     30  O   UNL     1      -3.665   2.412  -2.533  1.00  0.00    +0.000 OA
ATOM     31  C   UNL     1      -2.507   2.998  -1.937  1.00  0.00    +0.000 C 
ATOM     32  C   UNL     1      -1.333   2.062  -1.783  1.00  0.00    +0.000 A 
ATOM     33  C   UNL     1      -0.148   2.599  -1.242  1.00  0.00    +0.000 A 
ATOM     34  C   UNL     1      -5.247   1.891  -0.816  1.00  0.00    +0.000 A 
ATOM     35  C   UNL     1      -5.693   0.986   0.138  1.00  0.00    +0.000 A 
ATOM     36  C   UNL     1      -5.120  -0.298   0.236  1.00  0.00    +0.000 A 
ATOM     37  C   UNL     1      -5.653  -1.219   1.308  1.00  0.00    +0.000 C 
ATOM     38  C   UNL     1      -4.777  -2.453   1.496  1.00  0.00    +0.000 C 
ATOM     39  N   UNL     1      -4.431  -3.096   0.229  1.00  0.00    +0.000 NA
ATOM     40  C   UNL     1      -5.597  -3.653  -0.457  1.00  0.00    +0.000 C 
ATOM     41  C   UNL     1      -4.098  -0.719  -0.654  1.00  0.00    +0.000 A 
ATOM     42  C   UNL     1       4.077   0.608   0.223  1.00  0.00    +0.000 A 
ENDROOT
BRANCH  14  43
ATOM     43  O   UNL     1       5.775  -2.967   1.676  1.00  0.00    +0.000 OA
ATOM     44  C   UNL     1       7.128  -3.302   1.403  1.00  0.00    +0.000 C 
ENDBRANCH  14  43
BRANCH  34  45
ATOM     45  O   UNL     1      -5.727   3.161  -0.987  1.00  0.00    +0.000 OA
ATOM     46  C   UNL     1      -6.940   3.489  -0.323  1.00  0.00    +0.000 C 
ENDBRANCH  34  45
TORSDOF 2
