REMARK  Name = SANCDB_00971_minRM1.pdb
AUTHORGENERATED BY OPEN BABEL 2.3.2
REMARK  1 active torsions:
REMARK  status: ('A' for Active; 'I' for Inactive)
REMARK    1  A    between atoms: C_5  and  C_7
REMARK                            x       y       z     vdW  Elec       q    Type
REMARK                         _______ _______ _______ _____ _____    ______ ____
ROOT
ATOM      1  C   UNL     1      -2.224  -1.553   0.143  1.00  0.00    +0.000 C 
ATOM      2  C   UNL     1      -2.930  -0.389   0.849  1.00  0.00    +0.000 C 
ATOM      3  C   UNL     1      -2.489   0.983   0.307  1.00  0.00    +0.000 C 
ATOM      4  N   UNL     1      -1.142   0.929  -0.248  1.00  0.00    +0.000 N 
ATOM      5  C   UNL     1      -0.241   0.007   0.449  1.00  0.00    +0.000 C 
ATOM      6  C   UNL     1      -0.687  -1.433   0.181  1.00  0.00    +0.000 C 
ATOM      7  C   UNL     1      -1.004   1.105  -1.616  1.00  0.00    +0.000 C 
ATOM      8  O   UNL     1      -0.131   0.619  -2.322  1.00  0.00    +0.000 OA
ENDROOT
BRANCH   5   9
ATOM      9  C   UNL     1       1.239   0.329   0.254  1.00  0.00    +0.000 C 
ATOM     10  N   UNL     1       1.763   1.423   0.733  1.00  0.00    +0.000 NA
ATOM     11  C   UNL     1       3.168   1.412   0.282  1.00  0.00    +0.000 C 
ATOM     12  C   UNL     1       3.490  -0.038  -0.018  1.00  0.00    +0.000 C 
ATOM     13  C   UNL     1       2.166  -0.579  -0.501  1.00  0.00    +0.000 C 
ENDBRANCH   5   9
TORSDOF 1
