REMARK  Name = /srv/my_project/app/compsite/backup/Dave/CORINA_stuff/newPDBs/SANC00703.pdb
AUTHORGENERATED BY OPEN BABEL 2.3.2
REMARK  11 active torsions:
REMARK  status: ('A' for Active; 'I' for Inactive)
REMARK    1  A    between atoms: C_2  and  C_3
REMARK    2  A    between atoms: C_3  and  C_5
REMARK    3  A    between atoms: C_3  and  C_6
REMARK    4  A    between atoms: C_7  and  C_8
REMARK    5  A    between atoms: C_8  and  C_9
REMARK    6  A    between atoms: C_8  and  C_11
REMARK    7  A    between atoms: C_9  and  C_10
REMARK    8  A    between atoms: C_11  and  C_12
REMARK    9  A    between atoms: C_11  and  C_13
REMARK   10  A    between atoms: C_28  and  C_29
REMARK   11  A    between atoms: C_34  and  C_35
REMARK                            x       y       z     vdW  Elec       q    Type
REMARK                         _______ _______ _______ _____ _____    ______ ____
ROOT
ATOM      1  C   UNL     1       1.024   0.778  -0.500  1.00  0.00    +0.000 C 
ATOM      2  C   UNL     1       1.201   1.570   0.831  1.00  0.00    +0.000 C 
ATOM      3  C   UNL     1      -0.172   1.618   1.518  1.00  0.00    +0.000 C 
ATOM      4  C   UNL     1      -1.023   0.660   0.699  1.00  0.00    +0.000 C 
ATOM      5  C   UNL     1      -2.551   0.738   0.811  1.00  0.00    +0.000 C 
ATOM      6  C   UNL     1      -3.087   0.722   2.257  1.00  0.00    +0.000 C 
ATOM      7  C   UNL     1      -3.898  -0.520   2.612  1.00  0.00    +0.000 C 
ATOM      8  C   UNL     1      -4.963  -0.876   1.597  1.00  0.00    +0.000 C 
ATOM      9  C   UNL     1      -6.040  -1.580   1.992  1.00  0.00    +0.000 C 
ATOM     10  C   UNL     1      -7.038  -2.088   1.022  1.00  0.00    +0.000 C 
ATOM     11  O   UNL     1      -8.074  -2.599   1.443  1.00  0.00    +0.000 OA
ATOM     12  C   UNL     1      -6.761  -1.948  -0.455  1.00  0.00    +0.000 C 
ATOM     13  C   UNL     1      -5.292  -1.651  -0.751  1.00  0.00    +0.000 C 
ATOM     14  C   UNL     1      -4.703  -0.518   0.131  1.00  0.00    +0.000 C 
ATOM     15  C   UNL     1      -5.417   0.810  -0.213  1.00  0.00    +0.000 C 
ATOM     16  C   UNL     1      -3.153  -0.408  -0.062  1.00  0.00    +0.000 C 
ATOM     17  C   UNL     1      -2.664  -0.295  -1.523  1.00  0.00    +0.000 C 
ATOM     18  C   UNL     1      -1.126  -0.241  -1.626  1.00  0.00    +0.000 C 
ATOM     19  C   UNL     1      -0.514   0.875  -0.757  1.00  0.00    +0.000 C 
ATOM     20  C   UNL     1      -0.885   2.256  -1.355  1.00  0.00    +0.000 C 
ENDROOT
BRANCH   1  21
ATOM     21  C   UNL     1       2.010   1.268  -1.597  1.00  0.00    +0.000 C 
ATOM     22  C   UNL     1       1.848   0.534  -2.931  1.00  0.00    +0.000 C 
BRANCH  21  23
ATOM     23  C   UNL     1       3.482   1.201  -1.218  1.00  0.00    +0.000 C 
ATOM     24  C   UNL     1       4.067   0.322  -0.388  1.00  0.00    +0.000 C 
BRANCH  24  25
ATOM     25  C   UNL     1       5.547   0.323  -0.064  1.00  0.00    +0.000 C 
BRANCH  25  26
ATOM     26  C   UNL     1       6.306  -0.927  -0.602  1.00  0.00    +0.000 C 
ATOM     27  C   UNL     1       5.577  -2.266  -0.430  1.00  0.00    +0.000 C 
ATOM     28  C   UNL     1       6.635  -0.749  -2.093  1.00  0.00    +0.000 C 
ENDBRANCH  25  26
BRANCH  25  29
ATOM     29  C   UNL     1       5.790   0.611   1.437  1.00  0.00    +0.000 C 
ATOM     30  C   UNL     1       5.366  -0.461   2.429  1.00  0.00    +0.000 C 
ENDBRANCH  25  29
ENDBRANCH  24  25
ENDBRANCH  21  23
ENDBRANCH   1  21
TORSDOF 5
