REMARK  Name = 
REMARK  12 active torsions:
REMARK  status: ('A' for Active; 'I' for Inactive)
REMARK    1  A    between atoms: O_1  and  C_2
REMARK    2  A    between atoms: C_3  and  O_4
REMARK    3  A    between atoms: C_5  and  O_6
REMARK    4  A    between atoms: O_6  and  C_7
REMARK    5  A    between atoms: C_13  and  C_14
REMARK    6  A    between atoms: C_15  and  C_16
REMARK    7  A    between atoms: C_18  and  O_19
REMARK    8  A    between atoms: O_19  and  C_20
REMARK    9  A    between atoms: C_24  and  O_25
REMARK   10  A    between atoms: O_25  and  C_26
REMARK   11  A    between atoms: C_30  and  O_31
REMARK   12  A    between atoms: O_31  and  C_32
REMARK                            x       y       z     vdW  Elec       q    Type
REMARK                         _______ _______ _______ _____ _____    ______ ____
ROOT
ATOM      1  C   UNL     1       0.674  -2.003   2.086  1.00  0.00    +0.000 C 
ATOM      2  C   UNL     1      -0.446  -1.318   2.373  1.00  0.00    +0.000 C 
ENDROOT
BRANCH   1   8
ATOM      3  C   UNL     1       1.924  -2.931   0.138  1.00  0.00    +0.000 A 
ATOM      4  C   UNL     1       2.763  -2.764  -0.964  1.00  0.00    +0.000 A 
ATOM      5  C   UNL     1       3.265  -1.509  -1.315  1.00  0.00    +0.000 A 
ATOM      6  C   UNL     1       2.917  -0.411  -0.532  1.00  0.00    +0.000 A 
ATOM      7  C   UNL     1       2.074  -0.576   0.579  1.00  0.00    +0.000 A 
ATOM      8  C   UNL     1       1.552  -1.834   0.917  1.00  0.00    +0.000 A 
BRANCH   3   9
ATOM      9  O   UNL     1       1.468  -4.191   0.428  1.00  0.00    +0.000 OA
ATOM     10  H   UNL     1       1.871  -4.761  -0.258  1.00  0.00    +0.000 HD
ENDBRANCH   3   9
BRANCH   4  11
ATOM     11  O   UNL     1       3.086  -3.877  -1.702  1.00  0.00    +0.000 OA
ATOM     12  H   UNL     1       3.678  -3.540  -2.405  1.00  0.00    +0.000 HD
ENDBRANCH   4  11
BRANCH   5  13
ATOM     13  O   UNL     1       4.072  -1.496  -2.423  1.00  0.00    +0.000 OA
ATOM     14  C   UNL     1       4.584  -0.228  -2.818  1.00  0.00    +0.000 C 
ENDBRANCH   5  13
ENDBRANCH   1   8
BRANCH   2  15
ATOM     15  C   UNL     1      -1.075  -0.272   1.556  1.00  0.00    +0.000 A 
ATOM     16  C   UNL     1      -1.393  -0.494   0.208  1.00  0.00    +0.000 A 
ATOM     17  C   UNL     1      -2.000   0.505  -0.558  1.00  0.00    +0.000 A 
ATOM     18  C   UNL     1      -2.324   1.731   0.051  1.00  0.00    +0.000 A 
ATOM     19  C   UNL     1      -1.985   1.972   1.390  1.00  0.00    +0.000 A 
ATOM     20  C   UNL     1      -1.391   0.956   2.143  1.00  0.00    +0.000 A 
BRANCH  17  21
ATOM     21  O   UNL     1      -2.333   0.375  -1.883  1.00  0.00    +0.000 OA
ATOM     22  C   UNL     1      -1.814  -0.756  -2.571  1.00  0.00    +0.000 C 
ENDBRANCH  17  21
BRANCH  18  23
ATOM     23  O   UNL     1      -2.952   2.704  -0.690  1.00  0.00    +0.000 OA
ATOM     24  C   UNL     1      -4.366   2.510  -0.635  1.00  0.00    +0.000 C 
ENDBRANCH  18  23
BRANCH  19  25
ATOM     25  O   UNL     1      -2.238   3.129   2.080  1.00  0.00    +0.000 OA
ATOM     26  C   UNL     1      -1.894   4.319   1.374  1.00  0.00    +0.000 C 
ENDBRANCH  19  25
ENDBRANCH   2  15
TORSDOF 8
