REMARK  Name = /srv/my_project/app/compsite/backup/Dave/CORINA_stuff/newPDBs/SANC00599.pdb
AUTHORGENERATED BY OPEN BABEL 2.3.2
REMARK  13 active torsions:
REMARK  status: ('A' for Active; 'I' for Inactive)
REMARK    1  A    between atoms: C_10  and  C_11
REMARK    2  A    between atoms: C_12  and  C_14
REMARK    3  A    between atoms: C_14  and  C_16
REMARK    4  A    between atoms: C_14  and  N_17
REMARK    5  A    between atoms: N_17  and  C_18
REMARK    6  A    between atoms: N_17  and  C_19
REMARK    7  A    between atoms: C_20  and  O_22
REMARK    8  A    between atoms: C_24  and  C_25
REMARK    9  A    between atoms: C_30  and  N_32
REMARK   10  A    between atoms: N_32  and  C_33
REMARK   11  A    between atoms: N_32  and  C_34
REMARK   12  A    between atoms: C_35  and  C_36
REMARK   13  A    between atoms: C_35  and  C_37
REMARK                            x       y       z     vdW  Elec       q    Type
REMARK                         _______ _______ _______ _____ _____    ______ ____
ROOT
ATOM      1  C   UNL     1       2.943  -0.203   1.135  1.00  0.00    +0.000 C 
ATOM      2  C   UNL     1       1.848  -1.192   1.581  1.00  0.00    +0.000 C 
ATOM      3  C   UNL     1       0.538  -0.588   2.067  1.00  0.00    +0.000 C 
ATOM      4  C   UNL     1      -0.351  -0.195   0.874  1.00  0.00    +0.000 C 
ATOM      5  C   UNL     1      -0.006   1.170   0.273  1.00  0.00    +0.000 C 
ATOM      6  C   UNL     1      -0.980   1.972  -0.230  1.00  0.00    +0.000 C 
ATOM      7  C   UNL     1      -2.458   1.645  -0.302  1.00  0.00    +0.000 C 
ATOM      8  C   UNL     1      -2.725   0.153  -0.042  1.00  0.00    +0.000 C 
ATOM      9  C   UNL     1      -2.341  -0.617  -1.339  1.00  0.00    +0.000 C 
ATOM     10  C   UNL     1      -4.164  -0.247   0.409  1.00  0.00    +0.000 C 
ATOM     11  C   UNL     1      -3.926  -1.609   1.124  1.00  0.00    +0.000 C 
ATOM     12  C   UNL     1      -2.433  -1.669   1.520  1.00  0.00    +0.000 C 
ATOM     13  C   UNL     1      -1.877  -0.263   1.225  1.00  0.00    +0.000 C 
ATOM     14  C   UNL     1      -2.148   0.610   2.499  1.00  0.00    +0.000 C 
ATOM     15  C   UNL     1       1.354   1.685   0.256  1.00  0.00    +0.000 C 
ATOM     16  C   UNL     1       2.548   1.170   0.605  1.00  0.00    +0.000 C 
ATOM     17  C   UNL     1       3.756   2.093   0.510  1.00  0.00    +0.000 C 
ATOM     18  C   UNL     1       4.826   1.520  -0.410  1.00  0.00    +0.000 C 
ATOM     19  C   UNL     1       5.256   0.108   0.036  1.00  0.00    +0.000 C 
ATOM     20  C   UNL     1       4.025  -0.880   0.183  1.00  0.00    +0.000 C 
ATOM     21  C   UNL     1       3.405  -1.228  -1.190  1.00  0.00    +0.000 C 
ATOM     22  C   UNL     1       4.532  -2.202   0.818  1.00  0.00    +0.000 C 
ENDROOT
BRANCH  19  23
ATOM     23  N   UNL     1       6.376  -0.471  -0.754  1.00  0.00    +0.000 NA
ATOM     24  C   UNL     1       7.670  -0.212  -0.116  1.00  0.00    +0.000 C 
ATOM     25  C   UNL     1       6.437  -0.071  -2.159  1.00  0.00    +0.000 C 
ENDBRANCH  19  23
BRANCH  10  26
ATOM     26  C   UNL     1      -5.378  -0.211  -0.588  1.00  0.00    +0.000 C 
ATOM     27  C   UNL     1      -5.490  -1.435  -1.522  1.00  0.00    +0.000 C 
BRANCH  26  28
ATOM     28  N   UNL     1      -5.438   1.104  -1.282  1.00  0.00    +0.000 NA
ATOM     29  C   UNL     1      -6.189   1.111  -2.538  1.00  0.00    +0.000 C 
ATOM     30  C   UNL     1      -5.981   2.154  -0.407  1.00  0.00    +0.000 C 
ENDBRANCH  26  28
ENDBRANCH  10  26
BRANCH  11  31
ATOM     31  O   UNL     1      -4.737  -1.711   2.289  1.00  0.00    +0.000 OA
ATOM     32  H   UNL     1      -5.666  -1.697   2.005  1.00  0.00    +0.000 HD
ENDBRANCH  11  31
TORSDOF 4
