REMARK  Name = SANC00295.pdb
AUTHORGENERATED BY OPEN BABEL 2.3.0
REMARK  15 active torsions:
REMARK  status: ('A' for Active; 'I' for Inactive)
REMARK    1  A    between atoms: C_7  and  C_21
REMARK    2  A    between atoms: C_8  and  C_22
REMARK    3  A    between atoms: C_9  and  C_40
REMARK    4  A    between atoms: C_10  and  C_41
REMARK    5  A    between atoms: O_14  and  C_42
REMARK    6  A    between atoms: O_15  and  C_43
REMARK    7  A    between atoms: O_16  and  C_51
REMARK    8  A    between atoms: C_21  and  C_23
REMARK    9  A    between atoms: C_22  and  C_24
REMARK   10  A    between atoms: C_23  and  C_37
REMARK   11  A    between atoms: C_24  and  C_38
REMARK   12  A    between atoms: O_32  and  C_37
REMARK   13  A    between atoms: O_32  and  C_44
REMARK   14  A    between atoms: O_33  and  C_38
REMARK   15  A    between atoms: O_33  and  C_50
REMARK                            x       y       z     vdW  Elec       q    Type
REMARK                         _______ _______ _______ _____ _____    ______ ____
ROOT
ATOM      1  C   UNL     1       3.441   4.496   1.390  1.00  0.00    +0.000 C 
ATOM      2  C   UNL     1       3.991  -5.098   2.484  1.00  0.00    +0.000 C 
ATOM      3  O   UNL     1      -0.401  -0.466  -4.401  1.00  0.00    +0.000 OA
ATOM      4  C   UNL     1       4.842  -0.133   0.914  1.00  0.00    +0.000 C 
ATOM      5  C   UNL     1       4.729   1.247   0.502  1.00  0.00    +0.000 C 
ATOM      6  C   UNL     1       3.801  -0.976   0.824  1.00  0.00    +0.000 C 
ATOM      7  C   UNL     1       3.764   2.064   0.952  1.00  0.00    +0.000 C 
ATOM      8  C   UNL     1       3.828  -2.441   1.153  1.00  0.00    +0.000 C 
ATOM      9  C   UNL     1       2.059   3.243  -0.351  1.00  0.00    +0.000 C 
ATOM     10  C   UNL     1       1.538   5.435  -1.645  1.00  0.00    +0.000 C 
ATOM     11  C   UNL     1      -0.781   4.427  -1.328  1.00  0.00    +0.000 C 
ATOM     12  C   UNL     1       1.613  -4.825   1.632  1.00  0.00    +0.000 C 
ATOM     13  C   UNL     1      -1.214   2.353  -2.792  1.00  0.00    +0.000 C 
ATOM     14  C   UNL     1       0.108  -3.228  -0.843  1.00  0.00    +0.000 C 
ATOM     15  O   UNL     1       0.347  -1.544  -2.542  1.00  0.00    +0.000 OA
ATOM     16  O   UNL     1       1.008   3.204  -2.517  1.00  0.00    +0.000 OA
ATOM     17  O   UNL     1       1.446  -2.483   1.666  1.00  0.00    +0.000 OA
ATOM     18  C   UNL     1      -0.509  -0.708  -3.209  1.00  0.00    +0.000 C 
ATOM     19  C   UNL     1       3.437   3.400   0.327  1.00  0.00    +0.000 C 
ATOM     20  C   UNL     1       2.697  -4.307   2.560  1.00  0.00    +0.000 C 
ATOM     21  C   UNL     1       0.102   5.662  -1.172  1.00  0.00    +0.000 C 
ATOM     22  C   UNL     1      -0.420  -3.634   0.543  1.00  0.00    +0.000 C 
ATOM     23  C   UNL     1      -1.061   1.232  -1.728  1.00  0.00    +0.000 C 
ATOM     24  C   UNL     1       1.919   3.958  -1.705  1.00  0.00    +0.000 C 
ATOM     25  C   UNL     1      -0.360   3.611  -2.543  1.00  0.00    +0.000 C 
ATOM     26  C   UNL     1       2.759  -2.815   2.195  1.00  0.00    +0.000 C 
ATOM     27  C   UNL     1       0.635  -3.663   1.663  1.00  0.00    +0.000 C 
ATOM     28  C   UNL     1      -0.109  -1.747  -1.192  1.00  0.00    +0.000 C 
ATOM     29  C   UNL     1      -1.565  -1.277  -1.211  1.00  0.00    +0.000 C 
ATOM     30  C   UNL     1      -1.565  -0.144  -2.253  1.00  0.00    +0.000 C 
ENDROOT
BRANCH  21  31
ATOM     31  O   UNL     1       0.089   6.051   0.200  1.00  0.00    +0.000 OA
ATOM     32  H   UNL     1       0.560   6.900   0.270  1.00  0.00    +0.000 HD
ENDBRANCH  21  31
BRANCH  22  33
ATOM     33  O   UNL     1      -1.063  -4.911   0.450  1.00  0.00    +0.000 OA
ATOM     34  H   UNL     1      -0.453  -5.525   0.005  1.00  0.00    +0.000 HD
ENDBRANCH  22  33
BRANCH  30  35
ATOM     35  O   UNL     1      -2.861   0.040  -2.825  1.00  0.00    +0.000 OA
ATOM     36  H   UNL     1      -3.495   0.128  -2.084  1.00  0.00    +0.000 HD
ENDBRANCH  30  35
BRANCH  23  37
ATOM     37  O   UNL     1      -1.892   1.640  -0.604  1.00  0.00    +0.000 OA
BRANCH  37  39
ATOM     38  O   UNL     1      -0.358   0.841   0.890  1.00  0.00    +0.000 OA
ATOM     39  C   UNL     1      -1.394   1.440   0.648  1.00  0.00    +0.000 C 
BRANCH  39  40
ATOM     40  C   UNL     1      -2.334   2.030   1.671  1.00  0.00    +0.000 C 
BRANCH  40  42
ATOM     41  C   UNL     1      -2.656   2.649   4.090  1.00  0.00    +0.000 C 
ATOM     42  C   UNL     1      -1.718   2.029   3.067  1.00  0.00    +0.000 C 
ENDBRANCH  40  42
ENDBRANCH  39  40
ENDBRANCH  37  39
ENDBRANCH  23  37
BRANCH  29  43
ATOM     43  O   UNL     1      -2.410  -2.377  -1.638  1.00  0.00    +0.000 OA
BRANCH  43  45
ATOM     44  O   UNL     1      -4.221  -1.270  -0.793  1.00  0.00    +0.000 OA
ATOM     45  C   UNL     1      -3.732  -2.257  -1.327  1.00  0.00    +0.000 C 
BRANCH  45  46
ATOM     46  C   UNL     1      -4.473  -3.500  -1.755  1.00  0.00    +0.000 C 
BRANCH  46  48
ATOM     47  C   UNL     1      -6.692  -4.687  -1.822  1.00  0.00    +0.000 C 
ATOM     48  C   UNL     1      -5.954  -3.430  -1.393  1.00  0.00    +0.000 C 
ENDBRANCH  46  48
ENDBRANCH  45  46
ENDBRANCH  43  45
ENDBRANCH  29  43
TORSDOF 11
