REMARK  Name = SANCDB_00748_minRM1.pdb
AUTHORGENERATED BY OPEN BABEL 2.3.2
REMARK  7 active torsions:
REMARK  status: ('A' for Active; 'I' for Inactive)
REMARK    1  A    between atoms: O_1  and  C_2
REMARK    2  A    between atoms: C_4  and  O_27
REMARK    3  A    between atoms: C_12  and  C_13
REMARK    4  A    between atoms: C_17  and  C_18
REMARK    5  A    between atoms: C_22  and  C_23
REMARK    6  A    between atoms: C_28  and  C_29
REMARK    7  A    between atoms: C_31  and  O_32
REMARK                            x       y       z     vdW  Elec       q    Type
REMARK                         _______ _______ _______ _____ _____    ______ ____
ROOT
ATOM      1  C   UNL     1      -6.567   0.384   0.497  1.00  0.00    +0.000 C 
ATOM      2  C   UNL     1      -5.554   1.527   0.450  1.00  0.00    +0.000 C 
ATOM      3  C   UNL     1      -4.152   1.046   0.856  1.00  0.00    +0.000 C 
ATOM      4  C   UNL     1      -3.142   2.204   0.849  1.00  0.00    +0.000 C 
ATOM      5  C   UNL     1      -1.752   1.756   1.312  1.00  0.00    +0.000 C 
ATOM      6  C   UNL     1      -1.248   0.527   0.585  1.00  0.00    +0.000 C 
ATOM      7  C   UNL     1       0.003   0.417   0.093  1.00  0.00    +0.000 C 
ATOM      8  C   UNL     1       1.134   1.400   0.230  1.00  0.00    +0.000 C 
ATOM      9  C   UNL     1       2.295   0.493   0.605  1.00  0.00    +0.000 C 
ATOM     10  C   UNL     1       2.030  -0.871  -0.047  1.00  0.00    +0.000 C 
ATOM     11  C   UNL     1       3.178  -0.995  -1.053  1.00  0.00    +0.000 C 
ATOM     12  C   UNL     1       3.556  -2.442  -1.341  1.00  0.00    +0.000 C 
ATOM     13  C   UNL     1       4.276  -0.155  -0.383  1.00  0.00    +0.000 C 
ATOM     14  O   UNL     1       4.827  -0.870   0.725  1.00  0.00    +0.000 OA
ATOM     15  C   UNL     1       6.246  -0.855   0.826  1.00  0.00    +0.000 C 
ATOM     16  C   UNL     1       6.846   0.542   0.659  1.00  0.00    +0.000 C 
ATOM     17  C   UNL     1       6.501   1.435   1.854  1.00  0.00    +0.000 C 
ATOM     18  C   UNL     1       6.391   1.184  -0.660  1.00  0.00    +0.000 C 
ATOM     19  C   UNL     1       5.329   0.347  -1.374  1.00  0.00    +0.000 C 
ATOM     20  O   UNL     1       3.546   0.984   0.114  1.00  0.00    +0.000 OA
ATOM     21  C   UNL     1       0.556  -0.850  -0.542  1.00  0.00    +0.000 C 
ATOM     22  C   UNL     1       0.408  -0.737  -2.072  1.00  0.00    +0.000 C 
ATOM     23  C   UNL     1      -0.211  -2.078  -0.013  1.00  0.00    +0.000 C 
ATOM     24  C   UNL     1      -1.721  -1.911  -0.164  1.00  0.00    +0.000 C 
ATOM     25  C   UNL     1      -2.254  -0.631   0.527  1.00  0.00    +0.000 C 
ATOM     26  C   UNL     1      -3.649  -0.150  -0.032  1.00  0.00    +0.000 C 
ATOM     27  C   UNL     1      -3.507   0.275  -1.522  1.00  0.00    +0.000 C 
ATOM     28  C   UNL     1      -4.694  -1.297   0.057  1.00  0.00    +0.000 C 
ATOM     29  C   UNL     1      -6.110  -0.842  -0.307  1.00  0.00    +0.000 C 
ENDROOT
BRANCH   1  30
ATOM     30  O   UNL     1      -7.817   0.850  -0.022  1.00  0.00    +0.000 OA
ATOM     31  H   UNL     1      -8.346   0.046  -0.197  1.00  0.00    +0.000 HD
ENDBRANCH   1  30
BRANCH   3  32
ATOM     32  O   UNL     1      -4.275   0.578   2.214  1.00  0.00    +0.000 OA
ATOM     33  H   UNL     1      -4.474   1.345   2.782  1.00  0.00    +0.000 HD
ENDBRANCH   3  32
BRANCH  29  34
ATOM     34  O   UNL     1      -7.040  -1.909  -0.084  1.00  0.00    +0.000 OA
ATOM     35  H   UNL     1      -6.913  -2.225   0.829  1.00  0.00    +0.000 HD
ENDBRANCH  29  34
TORSDOF 3
