REMARK  Name = /srv/my_project/app/compsite/backup/Dave/CORINA_stuff/newPDBs/SANC00503.pdb
AUTHORGENERATED BY OPEN BABEL 2.3.2
REMARK  41 active torsions:
REMARK  status: ('A' for Active; 'I' for Inactive)
REMARK    1  A    between atoms: C_2  and  O_3
REMARK    2  A    between atoms: O_3  and  C_4
REMARK    3  A    between atoms: C_6  and  O_8
REMARK    4  A    between atoms: C_11  and  O_13
REMARK    5  A    between atoms: O_13  and  C_14
REMARK    6  A    between atoms: C_25  and  O_27
REMARK    7  A    between atoms: O_27  and  C_28
REMARK    8  A    between atoms: C_31  and  C_33
REMARK    9  A    between atoms: C_33  and  O_34
REMARK   10  A    between atoms: O_34  and  C_35
REMARK   11  A    between atoms: C_38  and  C_40
REMARK   12  A    between atoms: C_40  and  O_41
REMARK   13  A    between atoms: C_42  and  O_44
REMARK   14  A    between atoms: C_45  and  O_47
REMARK   15  A    between atoms: C_48  and  O_50
REMARK   16  A    between atoms: C_51  and  O_53
REMARK   17  A    between atoms: C_54  and  O_56
REMARK   18  A    between atoms: C_57  and  O_59
REMARK   19  A    between atoms: C_62  and  C_63
REMARK   20  A    between atoms: C_68  and  C_69
REMARK   21  A    between atoms: C_70  and  O_71
REMARK   22  A    between atoms: C_70  and  C_72
REMARK   23  A    between atoms: C_72  and  C_74
REMARK   24  A    between atoms: C_72  and  C_75
REMARK   25  A    between atoms: C_75  and  C_77
REMARK   26  A    between atoms: C_77  and  C_78
REMARK   27  A    between atoms: C_78  and  C_79
REMARK   28  A    between atoms: C_79  and  C_80
REMARK   29  A    between atoms: C_79  and  C_81
REMARK   30  A    between atoms: C_82  and  O_84
REMARK   31  A    between atoms: O_84  and  C_85
REMARK   32  A    between atoms: C_85  and  C_86
REMARK   33  A    between atoms: C_90  and  O_92
REMARK   34  A    between atoms: C_93  and  O_95
REMARK   35  A    between atoms: C_96  and  O_98
REMARK   36  A    between atoms: O_98  and  C_99
REMARK   37  A    between atoms: C_99  and  C_101
REMARK   38  A    between atoms: C_104  and  O_105
REMARK   39  A    between atoms: O_105  and  C_106
REMARK   40  A    between atoms: C_107  and  O_108
REMARK   41  A    between atoms: O_108  and  C_109
REMARK                            x       y       z     vdW  Elec       q    Type
REMARK                         _______ _______ _______ _____ _____    ______ ____
ROOT
ATOM      1  C   UNL     1       1.255  -2.122   0.974  1.00  0.00    +0.000 C 
ATOM      2  C   UNL     1       0.343  -1.030   1.566  1.00  0.00    +0.000 C 
ATOM      3  C   UNL     1      -1.063  -1.473   1.197  1.00  0.00    +0.000 C 
ATOM      4  C   UNL     1      -2.181  -0.431   1.345  1.00  0.00    +0.000 C 
ATOM      5  C   UNL     1      -2.260   0.095   2.790  1.00  0.00    +0.000 C 
ATOM      6  C   UNL     1      -3.604   0.614   3.201  1.00  0.00    +0.000 C 
ATOM      7  C   UNL     1      -4.718   0.562   2.445  1.00  0.00    +0.000 C 
ATOM      8  C   UNL     1      -6.051   0.902   3.082  1.00  0.00    +0.000 C 
ATOM      9  C   UNL     1      -7.217   1.199   2.129  1.00  0.00    +0.000 C 
ATOM     10  C   UNL     1      -7.273   0.267   0.911  1.00  0.00    +0.000 C 
ATOM     11  C   UNL     1      -6.074  -0.676   0.768  1.00  0.00    +0.000 C 
ATOM     12  C   UNL     1      -4.707   0.006   1.021  1.00  0.00    +0.000 C 
ATOM     13  C   UNL     1      -4.515   1.171   0.021  1.00  0.00    +0.000 C 
ATOM     14  C   UNL     1      -3.539  -1.047   0.897  1.00  0.00    +0.000 C 
ATOM     15  C   UNL     1      -3.432  -1.726  -0.489  1.00  0.00    +0.000 C 
ATOM     16  C   UNL     1      -2.242  -2.700  -0.596  1.00  0.00    +0.000 C 
ATOM     17  C   UNL     1      -0.897  -2.029  -0.242  1.00  0.00    +0.000 C 
ATOM     18  C   UNL     1      -0.589  -0.926  -1.289  1.00  0.00    +0.000 C 
ATOM     19  C   UNL     1       0.366  -2.966  -0.035  1.00  0.00    +0.000 C 
ENDROOT
BRANCH  19  20
ATOM     20  O   UNL     1      -0.060  -4.141   0.691  1.00  0.00    +0.000 OA
ATOM     21  H   UNL     1      -0.708  -4.626   0.154  1.00  0.00    +0.000 HD
ENDBRANCH  19  20
BRANCH  19  22
ATOM     22  C   UNL     1       1.128  -3.416  -1.317  1.00  0.00    +0.000 C 
ATOM     23  C   UNL     1       0.344  -4.349  -2.244  1.00  0.00    +0.000 C 
BRANCH  22  24
ATOM     24  C   UNL     1       2.492  -4.081  -1.082  1.00  0.00    +0.000 C 
ATOM     25  O   UNL     1       3.414  -3.857  -1.872  1.00  0.00    +0.000 OA
BRANCH  24  26
ATOM     26  C   UNL     1       2.648  -5.107   0.032  1.00  0.00    +0.000 C 
BRANCH  26  27
ATOM     27  C   UNL     1       4.065  -5.685   0.095  1.00  0.00    +0.000 C 
BRANCH  27  28
ATOM     28  C   UNL     1       4.327  -6.517   1.364  1.00  0.00    +0.000 C 
ATOM     29  C   UNL     1       3.409  -7.736   1.463  1.00  0.00    +0.000 C 
ATOM     30  C   UNL     1       5.790  -6.964   1.401  1.00  0.00    +0.000 C 
ENDBRANCH  27  28
ENDBRANCH  26  27
ENDBRANCH  24  26
ENDBRANCH  22  24
ENDBRANCH  19  22
BRANCH   9  31
ATOM     31  O   UNL     1      -7.114   2.572   1.713  1.00  0.00    +0.000 OA
BRANCH  31  32
ATOM     32  C   UNL     1      -8.384   3.232   1.623  1.00  0.00    +0.000 C 
ATOM     33  O   UNL     1      -9.145   2.713   0.535  1.00  0.00    +0.000 OA
ATOM     34  C   UNL     1      -9.130   3.496  -0.673  1.00  0.00    +0.000 C 
ATOM     35  C   UNL     1      -7.740   4.098  -0.904  1.00  0.00    +0.000 C 
ATOM     36  C   UNL     1      -7.411   5.098   0.220  1.00  0.00    +0.000 C 
ATOM     37  C   UNL     1      -8.119   4.753   1.541  1.00  0.00    +0.000 C 
BRANCH  37  38
ATOM     38  O   UNL     1      -9.341   5.502   1.624  1.00  0.00    +0.000 OA
ATOM     39  H   UNL     1      -9.869   5.153   2.363  1.00  0.00    +0.000 HD
ENDBRANCH  37  38
BRANCH  36  40
ATOM     40  O   UNL     1      -5.981   5.133   0.379  1.00  0.00    +0.000 OA
ATOM     41  H   UNL     1      -5.718   4.296   0.811  1.00  0.00    +0.000 HD
ENDBRANCH  36  40
BRANCH  35  42
ATOM     42  O   UNL     1      -7.619   4.741  -2.175  1.00  0.00    +0.000 OA
ATOM     43  H   UNL     1      -6.780   5.240  -2.149  1.00  0.00    +0.000 HD
ENDBRANCH  35  42
BRANCH  34  44
ATOM     44  C   UNL     1      -9.563   2.617  -1.858  1.00  0.00    +0.000 C 
BRANCH  44  45
ATOM     45  O   UNL     1     -10.843   2.020  -1.608  1.00  0.00    +0.000 OA
BRANCH  45  46
ATOM     46  C   UNL     1     -10.732   0.640  -1.252  1.00  0.00    +0.000 C 
ATOM     47  O   UNL     1     -10.441  -0.096  -2.446  1.00  0.00    +0.000 OA
ATOM     48  C   UNL     1     -10.302  -1.500  -2.229  1.00  0.00    +0.000 C 
ATOM     49  C   UNL     1     -11.600  -2.099  -1.665  1.00  0.00    +0.000 C 
ATOM     50  C   UNL     1     -12.002  -1.346  -0.398  1.00  0.00    +0.000 C 
ATOM     51  C   UNL     1     -12.059   0.165  -0.623  1.00  0.00    +0.000 C 
BRANCH  51  52
ATOM     52  O   UNL     1     -12.306   0.787   0.651  1.00  0.00    +0.000 OA
ATOM     53  H   UNL     1     -13.101   0.334   0.998  1.00  0.00    +0.000 HD
ENDBRANCH  51  52
BRANCH  50  54
ATOM     54  O   UNL     1     -13.284  -1.812   0.063  1.00  0.00    +0.000 OA
ATOM     55  H   UNL     1     -13.222  -2.789   0.016  1.00  0.00    +0.000 HD
ENDBRANCH  50  54
BRANCH  49  56
ATOM     56  O   UNL     1     -11.462  -3.483  -1.319  1.00  0.00    +0.000 OA
ATOM     57  H   UNL     1     -10.942  -3.900  -2.042  1.00  0.00    +0.000 HD
ENDBRANCH  49  56
BRANCH  48  58
ATOM     58  C   UNL     1      -9.935  -2.142  -3.575  1.00  0.00    +0.000 C 
BRANCH  58  59
ATOM     59  O   UNL     1      -9.810  -3.557  -3.450  1.00  0.00    +0.000 OA
ATOM     60  H   UNL     1      -9.534  -3.885  -4.328  1.00  0.00    +0.000 HD
ENDBRANCH  58  59
ENDBRANCH  48  58
ENDBRANCH  45  46
ENDBRANCH  44  45
ENDBRANCH  34  44
ENDBRANCH  31  32
ENDBRANCH   9  31
BRANCH   1  61
ATOM     61  O   UNL     1       2.396  -1.556   0.332  1.00  0.00    +0.000 OA
BRANCH  61  66
ATOM     62  C   UNL     1       5.427   0.174   0.355  1.00  0.00    +0.000 C 
ATOM     63  C   UNL     1       4.377   1.057  -0.331  1.00  0.00    +0.000 C 
ATOM     64  C   UNL     1       3.156   1.213   0.584  1.00  0.00    +0.000 C 
ATOM     65  O   UNL     1       3.120   0.264   1.656  1.00  0.00    +0.000 OA
ATOM     66  C   UNL     1       3.394  -1.076   1.239  1.00  0.00    +0.000 C 
ATOM     67  C   UNL     1       4.815  -1.214   0.630  1.00  0.00    +0.000 C 
BRANCH  63  68
ATOM     68  O   UNL     1       3.970   0.450  -1.564  1.00  0.00    +0.000 OA
ATOM     69  H   UNL     1       3.661   1.158  -2.155  1.00  0.00    +0.000 HD
ENDBRANCH  63  68
BRANCH  67  70
ATOM     70  O   UNL     1       5.647  -1.895   1.619  1.00  0.00    +0.000 OA
BRANCH  70  71
ATOM     71  C   UNL     1       6.706  -2.608   1.149  1.00  0.00    +0.000 C 
ATOM     72  C   UNL     1       7.436  -3.241   2.292  1.00  0.00    +0.000 C 
ATOM     73  O   UNL     1       7.041  -2.716  -0.021  1.00  0.00    +0.000 OA
ENDBRANCH  70  71
ENDBRANCH  67  70
BRANCH  62  74
ATOM     74  O   UNL     1       6.627  -0.007  -0.416  1.00  0.00    +0.000 OA
BRANCH  74  75
ATOM     75  C   UNL     1       7.370   1.183  -0.659  1.00  0.00    +0.000 C 
ATOM     76  O   UNL     1       6.927   1.823  -1.858  1.00  0.00    +0.000 OA
ATOM     77  C   UNL     1       7.079   0.985  -3.011  1.00  0.00    +0.000 C 
ATOM     78  C   UNL     1       8.535   0.584  -3.255  1.00  0.00    +0.000 C 
ATOM     79  C   UNL     1       9.185   0.007  -1.986  1.00  0.00    +0.000 C 
ATOM     80  C   UNL     1       8.873   0.837  -0.730  1.00  0.00    +0.000 C 
BRANCH  78  81
ATOM     81  O   UNL     1       9.265   1.733  -3.714  1.00  0.00    +0.000 OA
ATOM     82  H   UNL     1      10.156   1.425  -3.952  1.00  0.00    +0.000 HD
ENDBRANCH  78  81
BRANCH  79  83
ATOM     83  O   UNL     1       8.832  -1.369  -1.834  1.00  0.00    +0.000 OA
ATOM     84  H   UNL     1       7.976  -1.455  -1.357  1.00  0.00    +0.000 HD
ENDBRANCH  79  83
BRANCH  80  85
ATOM     85  O   UNL     1       9.669   2.044  -0.781  1.00  0.00    +0.000 OA
BRANCH  85  86
ATOM     86  C   UNL     1       9.785   2.724   0.382  1.00  0.00    +0.000 C 
ATOM     87  O   UNL     1       9.337   2.370   1.460  1.00  0.00    +0.000 OA
BRANCH  86  88
ATOM     88  C   UNL     1      10.543   3.986   0.172  1.00  0.00    +0.000 A 
ATOM     89  C   UNL     1      10.808   4.489  -1.105  1.00  0.00    +0.000 A 
ATOM     90  C   UNL     1      11.505   5.691  -1.255  1.00  0.00    +0.000 A 
ATOM     91  C   UNL     1      11.939   6.403  -0.131  1.00  0.00    +0.000 A 
ATOM     92  C   UNL     1      11.672   5.898   1.159  1.00  0.00    +0.000 A 
ATOM     93  C   UNL     1      10.975   4.694   1.302  1.00  0.00    +0.000 A 
BRANCH  91  94
ATOM     94  O   UNL     1      12.626   7.591  -0.183  1.00  0.00    +0.000 OA
ATOM     95  C   UNL     1      12.830   8.178  -1.460  1.00  0.00    +0.000 C 
ENDBRANCH  91  94
BRANCH  92  96
ATOM     96  O   UNL     1      12.127   6.658   2.208  1.00  0.00    +0.000 OA
ATOM     97  C   UNL     1      11.887   6.182   3.525  1.00  0.00    +0.000 C 
ENDBRANCH  92  96
ENDBRANCH  86  88
ENDBRANCH  85  86
ENDBRANCH  80  85
ENDBRANCH  74  75
ENDBRANCH  62  74
ENDBRANCH  61  66
ENDBRANCH   1  61
TORSDOF 33
