REMARK  Name = SANCDB_00942_minRM1.pdb
AUTHORGENERATED BY OPEN BABEL 2.3.2
REMARK  11 active torsions:
REMARK  status: ('A' for Active; 'I' for Inactive)
REMARK    1  A    between atoms: C_2  and  O_21
REMARK    2  A    between atoms: C_3  and  C_13
REMARK    3  A    between atoms: C_7  and  O_12
REMARK    4  A    between atoms: C_9  and  O_11
REMARK    5  A    between atoms: C_15  and  O_20
REMARK    6  A    between atoms: C_16  and  O_19
REMARK    7  A    between atoms: O_21  and  C_22
REMARK    8  A    between atoms: C_22  and  C_24
REMARK    9  A    between atoms: C_26  and  O_32
REMARK   10  A    between atoms: C_27  and  O_31
REMARK   11  A    between atoms: C_28  and  O_30
REMARK                            x       y       z     vdW  Elec       q    Type
REMARK                         _______ _______ _______ _____ _____    ______ ____
ROOT
ATOM      1  C   UNL     1      -0.675  -1.968  -0.308  1.00  0.00    +0.000 C 
ATOM      2  C   UNL     1      -0.137  -1.115   0.840  1.00  0.00    +0.000 C 
ATOM      3  C   UNL     1      -1.113   0.051   1.123  1.00  0.00    +0.000 C 
ATOM      4  O   UNL     1      -2.375  -0.504   1.565  1.00  0.00    +0.000 OA
ATOM      5  C   UNL     1      -2.896  -1.500   0.777  1.00  0.00    +0.000 A 
ATOM      6  C   UNL     1      -4.251  -1.769   0.977  1.00  0.00    +0.000 A 
ATOM      7  C   UNL     1      -4.876  -2.752   0.222  1.00  0.00    +0.000 A 
ATOM      8  C   UNL     1      -4.165  -3.472  -0.730  1.00  0.00    +0.000 A 
ATOM      9  C   UNL     1      -2.810  -3.204  -0.917  1.00  0.00    +0.000 A 
ATOM     10  C   UNL     1      -2.145  -2.233  -0.154  1.00  0.00    +0.000 A 
ENDROOT
BRANCH   3  11
ATOM     11  C   UNL     1      -1.361   1.125   0.056  1.00  0.00    +0.000 A 
ATOM     12  C   UNL     1      -2.507   1.942   0.168  1.00  0.00    +0.000 A 
ATOM     13  C   UNL     1      -2.756   2.946  -0.763  1.00  0.00    +0.000 A 
ATOM     14  C   UNL     1      -1.867   3.169  -1.806  1.00  0.00    +0.000 A 
ATOM     15  C   UNL     1      -0.724   2.400  -1.932  1.00  0.00    +0.000 A 
ATOM     16  C   UNL     1      -0.469   1.386  -1.001  1.00  0.00    +0.000 A 
BRANCH  14  17
ATOM     17  O   UNL     1      -2.113   4.156  -2.716  1.00  0.00    +0.000 OA
ATOM     18  H   UNL     1      -2.958   4.551  -2.421  1.00  0.00    +0.000 HD
ENDBRANCH  14  17
BRANCH  13  19
ATOM     19  O   UNL     1      -3.865   3.742  -0.690  1.00  0.00    +0.000 OA
ATOM     20  H   UNL     1      -4.402   3.437   0.063  1.00  0.00    +0.000 HD
ENDBRANCH  13  19
ENDBRANCH   3  11
BRANCH   9  21
ATOM     21  O   UNL     1      -2.185  -3.949  -1.878  1.00  0.00    +0.000 OA
ATOM     22  H   UNL     1      -1.309  -3.578  -2.064  1.00  0.00    +0.000 HD
ENDBRANCH   9  21
BRANCH   7  23
ATOM     23  O   UNL     1      -6.202  -2.980   0.442  1.00  0.00    +0.000 OA
ATOM     24  H   UNL     1      -6.495  -3.696  -0.147  1.00  0.00    +0.000 HD
ENDBRANCH   7  23
BRANCH   2  25
ATOM     25  O   UNL     1       1.208  -0.705   0.527  1.00  0.00    +0.000 OA
BRANCH  25  26
ATOM     26  C   UNL     1       1.949  -0.270   1.576  1.00  0.00    +0.000 C 
ATOM     27  O   UNL     1       1.571  -0.214   2.734  1.00  0.00    +0.000 OA
BRANCH  26  28
ATOM     28  C   UNL     1       3.303   0.149   1.125  1.00  0.00    +0.000 A 
ATOM     29  C   UNL     1       3.704   0.069  -0.219  1.00  0.00    +0.000 A 
ATOM     30  C   UNL     1       4.978   0.491  -0.581  1.00  0.00    +0.000 A 
ATOM     31  C   UNL     1       5.868   0.955   0.380  1.00  0.00    +0.000 A 
ATOM     32  C   UNL     1       5.467   1.047   1.706  1.00  0.00    +0.000 A 
ATOM     33  C   UNL     1       4.192   0.650   2.090  1.00  0.00    +0.000 A 
BRANCH  32  34
ATOM     34  O   UNL     1       6.330   1.516   2.653  1.00  0.00    +0.000 OA
ATOM     35  H   UNL     1       7.147   1.748   2.168  1.00  0.00    +0.000 HD
ENDBRANCH  32  34
BRANCH  31  36
ATOM     36  O   UNL     1       7.152   1.294   0.054  1.00  0.00    +0.000 OA
ATOM     37  H   UNL     1       7.404   0.718  -0.693  1.00  0.00    +0.000 HD
ENDBRANCH  31  36
BRANCH  30  38
ATOM     38  O   UNL     1       5.329   0.464  -1.899  1.00  0.00    +0.000 OA
ATOM     39  H   UNL     1       5.804   1.296  -2.080  1.00  0.00    +0.000 HD
ENDBRANCH  30  38
ENDBRANCH  26  28
ENDBRANCH  25  26
ENDBRANCH   2  25
TORSDOF 11
