REMARK  Name = /srv/my_project/app/compsite/backup/Dave/CORINA_stuff/newPDBs/SANC00327.pdb
AUTHORGENERATED BY OPEN BABEL 2.3.2
REMARK  5 active torsions:
REMARK  status: ('A' for Active; 'I' for Inactive)
REMARK    1  A    between atoms: C_4  and  O_6
REMARK    2  A    between atoms: O_6  and  C_7
REMARK    3  A    between atoms: C_20  and  O_22
REMARK    4  A    between atoms: O_22  and  C_23
REMARK    5  A    between atoms: C_23  and  C_24
REMARK                            x       y       z     vdW  Elec       q    Type
REMARK                         _______ _______ _______ _____ _____    ______ ____
ROOT
ATOM      1  C   UNL     1       1.915   0.179  -1.436  1.00  0.00    +0.000 C 
ATOM      2  C   UNL     1       3.077   0.713  -0.592  1.00  0.00    +0.000 C 
ATOM      3  C   UNL     1       3.424  -0.170   0.611  1.00  0.00    +0.000 C 
ATOM      4  C   UNL     1       2.196  -0.661   1.321  1.00  0.00    +0.000 C 
ATOM      5  C   UNL     1       0.965  -0.651   0.785  1.00  0.00    +0.000 C 
ATOM      6  C   UNL     1       0.628  -0.130  -0.615  1.00  0.00    +0.000 C 
ATOM      7  C   UNL     1      -0.452   0.934  -0.485  1.00  0.00    +0.000 A 
ATOM      8  C   UNL     1      -0.161   2.297  -0.320  1.00  0.00    +0.000 A 
ATOM      9  C   UNL     1      -1.216   3.172  -0.174  1.00  0.00    +0.000 A 
ATOM     10  O   UNL     1      -1.109   4.518  -0.010  1.00  0.00    +0.000 OA
ATOM     11  C   UNL     1      -2.498   4.889   0.107  1.00  0.00    +0.000 C 
ATOM     12  O   UNL     1      -3.403   3.772  -0.016  1.00  0.00    +0.000 OA
ATOM     13  C   UNL     1      -2.523   2.747  -0.176  1.00  0.00    +0.000 A 
ATOM     14  C   UNL     1      -2.855   1.419  -0.325  1.00  0.00    +0.000 A 
ATOM     15  C   UNL     1      -1.813   0.487  -0.479  1.00  0.00    +0.000 A 
ATOM     16  C   UNL     1      -2.164  -0.995  -0.671  1.00  0.00    +0.000 C 
ATOM     17  O   UNL     1      -1.053  -1.879  -0.894  1.00  0.00    +0.000 OA
ATOM     18  C   UNL     1       0.012  -1.201  -1.539  1.00  0.00    +0.000 C 
ATOM     19  C   UNL     1       1.211  -2.056  -1.901  1.00  0.00    +0.000 C 
ATOM     20  N   UNL     1       2.277  -1.073  -2.168  1.00  0.00    +0.000 NA
ATOM     21  H   UNL     1       3.173  -1.448  -1.862  1.00  0.00    +0.000 HD
ENDROOT
BRANCH   3  22
ATOM     22  O   UNL     1       4.200   0.627   1.509  1.00  0.00    +0.000 OA
ATOM     23  C   UNL     1       5.171  -0.124   2.226  1.00  0.00    +0.000 C 
ENDBRANCH   3  22
BRANCH  16  24
ATOM     24  O   UNL     1      -2.881  -1.410   0.492  1.00  0.00    +0.000 OA
BRANCH  24  25
ATOM     25  C   UNL     1      -3.530  -2.663   0.304  1.00  0.00    +0.000 C 
ATOM     26  C   UNL     1      -4.292  -2.998   1.571  1.00  0.00    +0.000 C 
ENDBRANCH  24  25
ENDBRANCH  16  24
TORSDOF 3
