REMARK  Name = /srv/my_project/app/compsite/backup/Dave/CORINA_stuff/newPDBs/SANC00683.pdb
AUTHORGENERATED BY OPEN BABEL 2.3.2
REMARK  11 active torsions:
REMARK  status: ('A' for Active; 'I' for Inactive)
REMARK    1  A    between atoms: C_1  and  O_2
REMARK    2  A    between atoms: O_2  and  C_3
REMARK    3  A    between atoms: C_6  and  C_7
REMARK    4  A    between atoms: C_8  and  C_9
REMARK    5  A    between atoms: C_11  and  O_12
REMARK    6  A    between atoms: C_13  and  O_14
REMARK    7  A    between atoms: O_14  and  C_15
REMARK    8  A    between atoms: C_16  and  O_17
REMARK    9  A    between atoms: O_17  and  C_18
REMARK   10  A    between atoms: C_21  and  O_22
REMARK   11  A    between atoms: O_22  and  C_23
REMARK                            x       y       z     vdW  Elec       q    Type
REMARK                         _______ _______ _______ _____ _____    ______ ____
ROOT
ATOM      1  C   UNL     1      -0.499   0.426  -0.128  1.00  0.00    +0.000 C 
ATOM      2  C   UNL     1       0.197  -0.634   0.312  1.00  0.00    +0.000 C 
ENDROOT
BRANCH   1   6
ATOM      3  C   UNL     1      -4.745   0.890   0.234  1.00  0.00    +0.000 A 
ATOM      4  C   UNL     1      -3.881   1.964   0.467  1.00  0.00    +0.000 A 
ATOM      5  C   UNL     1      -2.498   1.796   0.350  1.00  0.00    +0.000 A 
ATOM      6  C   UNL     1      -1.957   0.553   0.010  1.00  0.00    +0.000 A 
ATOM      7  C   UNL     1      -2.825  -0.520  -0.241  1.00  0.00    +0.000 A 
ATOM      8  C   UNL     1      -4.213  -0.363  -0.127  1.00  0.00    +0.000 A 
BRANCH   3  10
ATOM      9  C   UNL     1      -6.685   2.207   0.700  1.00  0.00    +0.000 C 
ATOM     10  O   UNL     1      -6.113   0.962   0.327  1.00  0.00    +0.000 OA
ENDBRANCH   3  10
BRANCH   8  11
ATOM     11  O   UNL     1      -5.127  -1.364  -0.350  1.00  0.00    +0.000 OA
ATOM     12  C   UNL     1      -4.631  -2.644  -0.713  1.00  0.00    +0.000 C 
ENDBRANCH   8  11
ENDBRANCH   1   6
BRANCH   2  13
ATOM     13  C   UNL     1       1.654  -0.769   0.172  1.00  0.00    +0.000 A 
ATOM     14  C   UNL     1       2.183  -2.018  -0.153  1.00  0.00    +0.000 A 
ATOM     15  C   UNL     1       3.558  -2.171  -0.259  1.00  0.00    +0.000 A 
ATOM     16  C   UNL     1       4.443  -1.110  -0.024  1.00  0.00    +0.000 A 
ATOM     17  C   UNL     1       3.924   0.157   0.286  1.00  0.00    +0.000 A 
ATOM     18  C   UNL     1       2.531   0.307   0.400  1.00  0.00    +0.000 A 
BRANCH  15  19
ATOM     19  O   UNL     1       4.043  -3.409  -0.594  1.00  0.00    +0.000 OA
ATOM     20  H   UNL     1       5.011  -3.291  -0.651  1.00  0.00    +0.000 HD
ENDBRANCH  15  19
BRANCH  16  21
ATOM     21  O   UNL     1       5.767  -1.451  -0.177  1.00  0.00    +0.000 OA
ATOM     22  C   UNL     1       6.686  -0.782   0.681  1.00  0.00    +0.000 C 
ENDBRANCH  16  21
BRANCH  17  23
ATOM     23  O   UNL     1       4.812   1.187   0.448  1.00  0.00    +0.000 OA
ATOM     24  C   UNL     1       4.291   2.500   0.606  1.00  0.00    +0.000 C 
ENDBRANCH  17  23
ENDBRANCH   2  13
TORSDOF 7
