REMARK  Name = SANCDB_00766_minRM1.pdb
AUTHORGENERATED BY OPEN BABEL 2.3.2
REMARK  2 active torsions:
REMARK  status: ('A' for Active; 'I' for Inactive)
REMARK    1  A    between atoms: C_1  and  N_2
REMARK    2  A    between atoms: C_14  and  O_15
REMARK                            x       y       z     vdW  Elec       q    Type
REMARK                         _______ _______ _______ _____ _____    ______ ____
ROOT
ATOM      1  C   UNL     1      -4.035   1.331   0.530  1.00  0.00    +0.000 C 
ATOM      2  N   UNL     1      -2.749   0.648   0.410  1.00  0.00    +0.000 N 
ATOM      3  C   UNL     1      -2.676  -0.658  -0.107  1.00  0.00    +0.000 C 
ATOM      4  C   UNL     1      -1.521  -1.320  -0.318  1.00  0.00    +0.000 C 
ATOM      5  C   UNL     1      -0.309  -0.619   0.038  1.00  0.00    +0.000 C 
ATOM      6  C   UNL     1      -0.341   0.789   0.446  1.00  0.00    +0.000 C 
ATOM      7  C   UNL     1      -1.548   1.346   0.632  1.00  0.00    +0.000 C 
ATOM      8  N   UNL     1       0.953   1.271   0.566  1.00  0.00    +0.000 N 
ATOM      9  C   UNL     1       1.874   0.123   0.493  1.00  0.00    +0.000 C 
ATOM     10  C   UNL     1       0.977  -0.989  -0.015  1.00  0.00    +0.000 C 
ATOM     11  C   UNL     1       1.631  -2.152  -0.566  1.00  0.00    +0.000 C 
ATOM     12  C   UNL     1       2.869  -2.001  -1.079  1.00  0.00    +0.000 C 
ATOM     13  C   UNL     1       3.501  -0.685  -1.173  1.00  0.00    +0.000 C 
ATOM     14  C   UNL     1       3.017   0.349  -0.462  1.00  0.00    +0.000 C 
ATOM     15  H   UNL     1       1.055   1.832   1.407  1.00  0.00    +0.000 HD
ENDROOT
BRANCH  14  16
ATOM     16  O   UNL     1       3.468   1.641  -0.639  1.00  0.00    +0.000 OA
ATOM     17  H   UNL     1       2.696   2.197  -0.398  1.00  0.00    +0.000 HD
ENDBRANCH  14  16
TORSDOF 1
