REMARK  Name = SANCDB_01108_minRM1.pdb
AUTHORGENERATED BY OPEN BABEL 2.3.2
REMARK  9 active torsions:
REMARK  status: ('A' for Active; 'I' for Inactive)
REMARK    1  A    between atoms: C_1  and  C_2
REMARK    2  A    between atoms: C_2  and  C_4
REMARK    3  A    between atoms: C_7  and  C_31
REMARK    4  A    between atoms: C_13  and  C_30
REMARK    5  A    between atoms: C_18  and  C_28
REMARK    6  A    between atoms: C_18  and  C_29
REMARK    7  A    between atoms: C_22  and  C_27
REMARK    8  A    between atoms: C_23  and  C_26
REMARK    9  A    between atoms: C_31  and  O_32
REMARK                            x       y       z     vdW  Elec       q    Type
REMARK                         _______ _______ _______ _____ _____    ______ ____
ROOT
ATOM      1  C   UNL     1      -4.162  -0.859   1.148  1.00  0.00    +0.000 C 
ATOM      2  C   UNL     1      -5.523  -0.126   0.980  1.00  0.00    +0.000 C 
ATOM      3  C   UNL     1      -5.235   1.162   0.190  1.00  0.00    +0.000 C 
ATOM      4  C   UNL     1      -3.737   1.419   0.416  1.00  0.00    +0.000 C 
ATOM      5  C   UNL     1      -3.193  -0.029   0.274  1.00  0.00    +0.000 C 
ATOM      6  C   UNL     1      -1.670  -0.072   0.526  1.00  0.00    +0.000 C 
ATOM      7  C   UNL     1      -1.079  -1.486   0.575  1.00  0.00    +0.000 C 
ATOM      8  C   UNL     1       0.421  -1.485   0.885  1.00  0.00    +0.000 C 
ATOM      9  C   UNL     1       1.238  -0.589  -0.071  1.00  0.00    +0.000 C 
ATOM     10  C   UNL     1       2.814  -0.777   0.048  1.00  0.00    +0.000 C 
ATOM     11  C   UNL     1       3.154  -2.265  -0.325  1.00  0.00    +0.000 C 
ATOM     12  C   UNL     1       4.486  -2.486  -1.035  1.00  0.00    +0.000 C 
ATOM     13  C   UNL     1       5.491  -1.409  -0.720  1.00  0.00    +0.000 C 
ATOM     14  O   UNL     1       6.609  -1.700  -0.293  1.00  0.00    +0.000 OA
ATOM     15  C   UNL     1       5.084   0.032  -1.048  1.00  0.00    +0.000 C 
ATOM     16  C   UNL     1       3.518   0.158  -0.999  1.00  0.00    +0.000 C 
ATOM     17  C   UNL     1       3.029   1.615  -0.903  1.00  0.00    +0.000 C 
ATOM     18  C   UNL     1       1.515   1.719  -1.104  1.00  0.00    +0.000 C 
ATOM     19  C   UNL     1       0.679   0.889  -0.091  1.00  0.00    +0.000 C 
ATOM     20  C   UNL     1      -0.895   0.847  -0.510  1.00  0.00    +0.000 C 
ATOM     21  C   UNL     1      -1.546   2.278  -0.545  1.00  0.00    +0.000 C 
ATOM     22  C   UNL     1      -3.083   2.287  -0.671  1.00  0.00    +0.000 C 
ATOM     23  C   UNL     1      -1.070   0.285  -1.964  1.00  0.00    +0.000 C 
ATOM     24  C   UNL     1       0.836   1.577   1.298  1.00  0.00    +0.000 C 
ATOM     25  C   UNL     1       5.582   0.311  -2.483  1.00  0.00    +0.000 C 
ATOM     26  C   UNL     1       5.830   0.996  -0.106  1.00  0.00    +0.000 C 
ATOM     27  C   UNL     1       3.337  -0.558   1.487  1.00  0.00    +0.000 C 
ENDROOT
BRANCH   1  29
ATOM     28  C   UNL     1      -4.486  -2.767  -0.595  1.00  0.00    +0.000 C 
ATOM     29  C   UNL     1      -4.278  -2.342   0.834  1.00  0.00    +0.000 C 
ATOM     30  C   UNL     1      -4.220  -3.260   1.815  1.00  0.00    +0.000 C 
ENDBRANCH   1  29
BRANCH   4  31
ATOM     31  C   UNL     1      -3.534   2.051   1.827  1.00  0.00    +0.000 C 
BRANCH  31  32
ATOM     32  O   UNL     1      -4.151   3.332   1.915  1.00  0.00    +0.000 OA
ATOM     33  H   UNL     1      -3.593   3.965   1.433  1.00  0.00    +0.000 HD
ENDBRANCH  31  32
ENDBRANCH   4  31
TORSDOF 3
