REMARK  Name = /srv/my_project/app/compsite/backup/Dave/CORINA_stuff/newPDBs/SANC00319.pdb
AUTHORGENERATED BY OPEN BABEL 2.3.2
REMARK  1 active torsions:
REMARK  status: ('A' for Active; 'I' for Inactive)
REMARK    1  A    between atoms: C_4  and  O_6
REMARK                            x       y       z     vdW  Elec       q    Type
REMARK                         _______ _______ _______ _____ _____    ______ ____
ROOT
ATOM      1  C   UNL     1      -1.387   0.565   0.803  1.00  0.00    +0.000 C 
ATOM      2  C   UNL     1      -2.819   0.181   1.195  1.00  0.00    +0.000 C 
ATOM      3  C   UNL     1      -2.822  -1.196   1.866  1.00  0.00    +0.000 C 
ATOM      4  C   UNL     1      -2.006  -2.208   1.116  1.00  0.00    +0.000 C 
ATOM      5  C   UNL     1      -1.090  -1.886   0.187  1.00  0.00    +0.000 C 
ATOM      6  C   UNL     1      -0.734  -0.458  -0.168  1.00  0.00    +0.000 C 
ATOM      7  C   UNL     1      -1.346  -0.046  -1.520  1.00  0.00    +0.000 C 
ATOM      8  C   UNL     1      -1.666   1.444  -1.361  1.00  0.00    +0.000 C 
ATOM      9  N   UNL     1      -1.320   1.829   0.026  1.00  0.00    +0.000 NA
ATOM     10  C   UNL     1       0.083   2.315   0.085  1.00  0.00    +0.000 C 
ATOM     11  C   UNL     1       1.143   1.245  -0.136  1.00  0.00    +0.000 A 
ATOM     12  C   UNL     1       2.492   1.627  -0.215  1.00  0.00    +0.000 A 
ATOM     13  C   UNL     1       3.433   0.638  -0.391  1.00  0.00    +0.000 A 
ATOM     14  O   UNL     1       4.775   0.829  -0.491  1.00  0.00    +0.000 OA
ATOM     15  C   UNL     1       5.230  -0.530  -0.658  1.00  0.00    +0.000 C 
ATOM     16  O   UNL     1       4.160  -1.497  -0.663  1.00  0.00    +0.000 OA
ATOM     17  C   UNL     1       3.082  -0.687  -0.486  1.00  0.00    +0.000 A 
ATOM     18  C   UNL     1       1.769  -1.106  -0.410  1.00  0.00    +0.000 A 
ATOM     19  C   UNL     1       0.772  -0.135  -0.222  1.00  0.00    +0.000 A 
ENDROOT
BRANCH   3  20
ATOM     20  O   UNL     1      -4.158  -1.676   1.941  1.00  0.00    +0.000 OA
ATOM     21  H   UNL     1      -4.477  -1.790   1.030  1.00  0.00    +0.000 HD
ENDBRANCH   3  20
TORSDOF 1
