REMARK  Name = /srv/my_project/app/compsite/backup/Dave/CORINA_stuff/newPDBs/SANC00219.pdb
AUTHORGENERATED BY OPEN BABEL 2.3.2
REMARK  4 active torsions:
REMARK  status: ('A' for Active; 'I' for Inactive)
REMARK    1  A    between atoms: C_1  and  C_2
REMARK    2  A    between atoms: C_14  and  C_15
REMARK    3  A    between atoms: C_16  and  C_17
REMARK    4  A    between atoms: C_26  and  O_27
REMARK                            x       y       z     vdW  Elec       q    Type
REMARK                         _______ _______ _______ _____ _____    ______ ____
ROOT
ATOM      1  C   UNL     1       3.375   1.153   1.370  1.00  0.00    +0.000 C 
ATOM      2  C   UNL     1       2.906   0.584   0.009  1.00  0.00    +0.000 C 
ATOM      3  C   UNL     1       3.329   1.565  -1.122  1.00  0.00    +0.000 C 
ATOM      4  C   UNL     1       4.849   1.681  -1.290  1.00  0.00    +0.000 C 
ATOM      5  C   UNL     1       5.548   0.360  -1.184  1.00  0.00    +0.000 C 
ATOM      6  C   UNL     1       4.959  -0.755  -0.729  1.00  0.00    +0.000 C 
ATOM      7  C   UNL     1       3.586  -0.777  -0.253  1.00  0.00    +0.000 C 
ATOM      8  C   UNL     1       2.947  -1.958  -0.123  1.00  0.00    +0.000 C 
ATOM      9  C   UNL     1       1.508  -2.114   0.295  1.00  0.00    +0.000 C 
ATOM     10  C   UNL     1       0.939  -0.821   0.885  1.00  0.00    +0.000 C 
ATOM     11  C   UNL     1       1.349   0.379  -0.028  1.00  0.00    +0.000 C 
ATOM     12  C   UNL     1       0.477   1.614   0.254  1.00  0.00    +0.000 C 
ATOM     13  C   UNL     1      -1.034   1.361   0.023  1.00  0.00    +0.000 C 
ATOM     14  C   UNL     1      -1.465  -0.121   0.166  1.00  0.00    +0.000 C 
ATOM     15  C   UNL     1      -1.454  -0.815  -1.224  1.00  0.00    +0.000 C 
ATOM     16  C   UNL     1      -2.877  -0.327   0.822  1.00  0.00    +0.000 C 
ATOM     17  C   UNL     1      -2.789  -1.769   1.408  1.00  0.00    +0.000 C 
ATOM     18  C   UNL     1      -1.290  -2.127   1.508  1.00  0.00    +0.000 C 
ATOM     19  C   UNL     1      -0.567  -0.812   1.225  1.00  0.00    +0.000 C 
ENDROOT
BRANCH  16  20
ATOM     20  C   UNL     1      -4.089  -0.001  -0.037  1.00  0.00    +0.000 A 
ATOM     21  C   UNL     1      -4.495   1.386  -0.119  1.00  0.00    +0.000 A 
ATOM     22  C   UNL     1      -5.555   1.754  -0.847  1.00  0.00    +0.000 A 
ATOM     23  C   UNL     1      -6.351   0.759  -1.585  1.00  0.00    +0.000 A 
ATOM     24  O   UNL     1      -7.314   1.110  -2.258  1.00  0.00    +0.000 OA
ATOM     25  O   UNL     1      -5.965  -0.548  -1.475  1.00  0.00    +0.000 OA
ATOM     26  C   UNL     1      -4.845  -0.889  -0.698  1.00  0.00    +0.000 A 
ENDBRANCH  16  20
BRANCH  19  27
ATOM     27  O   UNL     1      -0.680  -0.040   2.451  1.00  0.00    +0.000 OA
ATOM     28  H   UNL     1      -0.209  -0.520   3.156  1.00  0.00    +0.000 HD
ENDBRANCH  19  27
TORSDOF 2
