REMARK  Name = SANCDB_00746_minRM1.pdb
AUTHORGENERATED BY OPEN BABEL 2.3.2
REMARK  6 active torsions:
REMARK  status: ('A' for Active; 'I' for Inactive)
REMARK    1  A    between atoms: O_1  and  C_2
REMARK    2  A    between atoms: C_12  and  C_13
REMARK    3  A    between atoms: C_17  and  C_18
REMARK    4  A    between atoms: C_22  and  C_23
REMARK    5  A    between atoms: C_27  and  C_28
REMARK    6  A    between atoms: C_30  and  O_31
REMARK                            x       y       z     vdW  Elec       q    Type
REMARK                         _______ _______ _______ _____ _____    ______ ____
ROOT
ATOM      1  C   UNL     1       6.667   0.808   0.773  1.00  0.00    +0.000 C 
ATOM      2  C   UNL     1       5.875  -0.308   1.448  1.00  0.00    +0.000 C 
ATOM      3  C   UNL     1       4.384  -0.164   1.218  1.00  0.00    +0.000 C 
ATOM      4  C   UNL     1       3.536  -0.214   2.261  1.00  0.00    +0.000 C 
ATOM      5  C   UNL     1       2.046  -0.118   2.157  1.00  0.00    +0.000 C 
ATOM      6  C   UNL     1       1.521  -0.281   0.723  1.00  0.00    +0.000 C 
ATOM      7  C   UNL     1       0.072   0.202   0.617  1.00  0.00    +0.000 C 
ATOM      8  C   UNL     1      -0.996  -0.449   1.490  1.00  0.00    +0.000 C 
ATOM      9  C   UNL     1      -2.275   0.153   0.905  1.00  0.00    +0.000 C 
ATOM     10  C   UNL     1      -1.968   0.583  -0.547  1.00  0.00    +0.000 C 
ATOM     11  C   UNL     1      -3.134  -0.004  -1.352  1.00  0.00    +0.000 C 
ATOM     12  C   UNL     1      -3.619   0.937  -2.447  1.00  0.00    +0.000 C 
ATOM     13  C   UNL     1      -4.174  -0.334  -0.265  1.00  0.00    +0.000 C 
ATOM     14  O   UNL     1      -4.880   0.854   0.108  1.00  0.00    +0.000 OA
ATOM     15  C   UNL     1      -6.292   0.725   0.213  1.00  0.00    +0.000 C 
ATOM     16  C   UNL     1      -6.727  -0.501   1.017  1.00  0.00    +0.000 C 
ATOM     17  C   UNL     1      -6.377  -0.338   2.499  1.00  0.00    +0.000 C 
ATOM     18  C   UNL     1      -6.110  -1.784   0.442  1.00  0.00    +0.000 C 
ATOM     19  C   UNL     1      -5.093  -1.493  -0.662  1.00  0.00    +0.000 C 
ATOM     20  O   UNL     1      -3.361  -0.765   0.848  1.00  0.00    +0.000 OA
ATOM     21  C   UNL     1      -0.519   0.076  -0.806  1.00  0.00    +0.000 C 
ATOM     22  C   UNL     1      -0.483  -1.374  -1.352  1.00  0.00    +0.000 C 
ATOM     23  C   UNL     1       0.310   0.989  -1.722  1.00  0.00    +0.000 C 
ATOM     24  C   UNL     1       1.802   0.612  -1.696  1.00  0.00    +0.000 C 
ATOM     25  C   UNL     1       2.409   0.530  -0.267  1.00  0.00    +0.000 C 
ATOM     26  C   UNL     1       3.913   0.040  -0.231  1.00  0.00    +0.000 C 
ATOM     27  C   UNL     1       4.086  -1.299  -0.986  1.00  0.00    +0.000 C 
ATOM     28  C   UNL     1       4.796   1.131  -0.901  1.00  0.00    +0.000 C 
ATOM     29  C   UNL     1       6.298   0.921  -0.711  1.00  0.00    +0.000 C 
ENDROOT
BRANCH   1  30
ATOM     30  O   UNL     1       8.068   0.545   0.892  1.00  0.00    +0.000 OA
ATOM     31  H   UNL     1       8.500   1.085   0.201  1.00  0.00    +0.000 HD
ENDBRANCH   1  30
BRANCH  29  32
ATOM     32  O   UNL     1       7.024   2.019  -1.283  1.00  0.00    +0.000 OA
ATOM     33  H   UNL     1       6.665   2.843  -0.909  1.00  0.00    +0.000 HD
ENDBRANCH  29  32
TORSDOF 2
