REMARK  Name = /srv/my_project/app/compsite/backup/Dave/CORINA_stuff/newPDBs/SANC00106.pdb
AUTHORGENERATED BY OPEN BABEL 2.3.2
REMARK  5 active torsions:
REMARK  status: ('A' for Active; 'I' for Inactive)
REMARK    1  A    between atoms: C_6  and  C_9
REMARK    2  A    between atoms: C_7  and  O_8
REMARK    3  A    between atoms: C_12  and  O_13
REMARK    4  A    between atoms: C_17  and  O_18
REMARK    5  A    between atoms: C_20  and  O_21
REMARK                            x       y       z     vdW  Elec       q    Type
REMARK                         _______ _______ _______ _____ _____    ______ ____
ROOT
ATOM      1  O   UNL     1      -2.035  -2.838  -0.643  1.00  0.00    +0.000 OA
ATOM      2  C   UNL     1      -1.526  -1.754  -0.368  1.00  0.00    +0.000 A 
ATOM      3  C   UNL     1      -2.329  -0.606   0.060  1.00  0.00    +0.000 A 
ATOM      4  C   UNL     1      -1.667   0.582   0.361  1.00  0.00    +0.000 A 
ATOM      5  O   UNL     1      -0.305   0.720   0.275  1.00  0.00    +0.000 OA
ATOM      6  C   UNL     1       0.457  -0.365  -0.146  1.00  0.00    +0.000 A 
ATOM      7  C   UNL     1      -0.060  -1.567  -0.461  1.00  0.00    +0.000 A 
ATOM      8  C   UNL     1      -2.390   1.703   0.772  1.00  0.00    +0.000 A 
ATOM      9  C   UNL     1      -3.776   1.617   0.878  1.00  0.00    +0.000 A 
ATOM     10  C   UNL     1      -4.446   0.433   0.580  1.00  0.00    +0.000 A 
ATOM     11  C   UNL     1      -3.720  -0.681   0.170  1.00  0.00    +0.000 A 
ENDROOT
BRANCH   6  12
ATOM     12  C   UNL     1       1.904  -0.068  -0.189  1.00  0.00    +0.000 A 
ATOM     13  C   UNL     1       2.694  -0.405  -1.300  1.00  0.00    +0.000 A 
ATOM     14  C   UNL     1       4.057  -0.093  -1.332  1.00  0.00    +0.000 A 
ATOM     15  C   UNL     1       4.634   0.566  -0.253  1.00  0.00    +0.000 A 
ATOM     16  C   UNL     1       3.872   0.918   0.853  1.00  0.00    +0.000 A 
ATOM     17  C   UNL     1       2.510   0.605   0.884  1.00  0.00    +0.000 A 
BRANCH  15  18
ATOM     18  O   UNL     1       5.958   0.889  -0.241  1.00  0.00    +0.000 OA
ATOM     19  H   UNL     1       6.363   0.564  -1.062  1.00  0.00    +0.000 HD
ENDBRANCH  15  18
ENDBRANCH   6  12
BRANCH   7  20
ATOM     20  O   UNL     1       0.689  -2.660  -0.855  1.00  0.00    +0.000 OA
ATOM     21  H   UNL     1       0.043  -3.387  -0.980  1.00  0.00    +0.000 HD
ENDBRANCH   7  20
BRANCH   9  22
ATOM     22  O   UNL     1      -4.524   2.686   1.275  1.00  0.00    +0.000 OA
ATOM     23  H   UNL     1      -3.939   3.442   1.446  1.00  0.00    +0.000 HD
ENDBRANCH   9  22
BRANCH  11  24
ATOM     24  O   UNL     1      -4.431  -1.817  -0.108  1.00  0.00    +0.000 OA
ATOM     25  H   UNL     1      -3.802  -2.522  -0.380  1.00  0.00    +0.000 HD
ENDBRANCH  11  24
TORSDOF 5
