REMARK  Name = SANCDB_01008_minRM1.pdb
AUTHORGENERATED BY OPEN BABEL 2.3.2
REMARK  11 active torsions:
REMARK  status: ('A' for Active; 'I' for Inactive)
REMARK    1  A    between atoms: C_3  and  O_31
REMARK    2  A    between atoms: C_4  and  O_30
REMARK    3  A    between atoms: C_6  and  C_7
REMARK    4  A    between atoms: C_8  and  O_20
REMARK    5  A    between atoms: C_12  and  O_19
REMARK    6  A    between atoms: C_14  and  O_18
REMARK    7  A    between atoms: O_20  and  C_21
REMARK    8  A    between atoms: C_22  and  O_29
REMARK    9  A    between atoms: C_23  and  O_28
REMARK   10  A    between atoms: C_24  and  C_26
REMARK   11  A    between atoms: C_26  and  O_27
REMARK                            x       y       z     vdW  Elec       q    Type
REMARK                         _______ _______ _______ _____ _____    ______ ____
ROOT
ATOM      1  C   UNL     1      -1.605   0.135   0.331  1.00  0.00    +0.000 A 
ATOM      2  C   UNL     1      -0.650  -0.201  -0.555  1.00  0.00    +0.000 A 
ATOM      3  C   UNL     1      -0.803  -1.472  -1.321  1.00  0.00    +0.000 A 
ATOM      4  O   UNL     1       0.017  -1.754  -2.189  1.00  0.00    +0.000 OA
ATOM      5  C   UNL     1      -1.958  -2.327  -0.974  1.00  0.00    +0.000 A 
ATOM      6  C   UNL     1      -2.195  -3.576  -1.568  1.00  0.00    +0.000 A 
ATOM      7  C   UNL     1      -3.308  -4.339  -1.202  1.00  0.00    +0.000 A 
ATOM      8  C   UNL     1      -4.183  -3.847  -0.239  1.00  0.00    +0.000 A 
ATOM      9  C   UNL     1      -3.961  -2.613   0.360  1.00  0.00    +0.000 A 
ATOM     10  C   UNL     1      -2.848  -1.857  -0.008  1.00  0.00    +0.000 A 
ATOM     11  O   UNL     1      -2.701  -0.654   0.632  1.00  0.00    +0.000 OA
ENDROOT
BRANCH   1  17
ATOM     12  C   UNL     1      -1.754   1.341   2.509  1.00  0.00    +0.000 A 
ATOM     13  C   UNL     1      -1.749   2.511   3.274  1.00  0.00    +0.000 A 
ATOM     14  C   UNL     1      -1.565   3.730   2.642  1.00  0.00    +0.000 A 
ATOM     15  C   UNL     1      -1.387   3.796   1.263  1.00  0.00    +0.000 A 
ATOM     16  C   UNL     1      -1.394   2.637   0.493  1.00  0.00    +0.000 A 
ATOM     17  C   UNL     1      -1.570   1.389   1.114  1.00  0.00    +0.000 A 
BRANCH  15  18
ATOM     18  O   UNL     1      -1.210   5.033   0.704  1.00  0.00    +0.000 OA
ATOM     19  H   UNL     1      -1.051   4.913  -0.248  1.00  0.00    +0.000 HD
ENDBRANCH  15  18
BRANCH  14  20
ATOM     20  O   UNL     1      -1.560   4.874   3.386  1.00  0.00    +0.000 OA
ATOM     21  H   UNL     1      -1.410   5.588   2.735  1.00  0.00    +0.000 HD
ENDBRANCH  14  20
ENDBRANCH   1  17
BRANCH   8  22
ATOM     22  O   UNL     1      -5.282  -4.550   0.154  1.00  0.00    +0.000 OA
ATOM     23  H   UNL     1      -5.324  -5.389  -0.333  1.00  0.00    +0.000 HD
ENDBRANCH   8  22
BRANCH   6  24
ATOM     24  O   UNL     1      -1.338  -4.073  -2.509  1.00  0.00    +0.000 OA
ATOM     25  H   UNL     1      -1.642  -4.936  -2.832  1.00  0.00    +0.000 HD
ENDBRANCH   6  24
BRANCH   2  26
ATOM     26  O   UNL     1       0.429   0.620  -0.838  1.00  0.00    +0.000 OA
BRANCH  26  27
ATOM     27  C   UNL     1       1.688   0.015  -0.519  1.00  0.00    +0.000 C 
ATOM     28  C   UNL     1       2.580   0.013  -1.771  1.00  0.00    +0.000 C 
ATOM     29  C   UNL     1       3.948   0.245  -1.165  1.00  0.00    +0.000 C 
ATOM     30  C   UNL     1       3.615   1.255  -0.082  1.00  0.00    +0.000 C 
ATOM     31  O   UNL     1       2.357   0.821   0.474  1.00  0.00    +0.000 OA
BRANCH  29  32
ATOM     32  O   UNL     1       4.883   0.735  -2.118  1.00  0.00    +0.000 OA
ATOM     33  H   UNL     1       4.839   0.112  -2.870  1.00  0.00    +0.000 HD
ENDBRANCH  29  32
BRANCH  28  34
ATOM     34  O   UNL     1       2.584  -1.205  -2.514  1.00  0.00    +0.000 OA
ATOM     35  H   UNL     1       1.642  -1.480  -2.617  1.00  0.00    +0.000 HD
ENDBRANCH  28  34
BRANCH  30  36
ATOM     36  C   UNL     1       4.678   1.385   1.010  1.00  0.00    +0.000 C 
BRANCH  36  37
ATOM     37  O   UNL     1       5.062   0.121   1.551  1.00  0.00    +0.000 OA
ATOM     38  H   UNL     1       5.769  -0.234   0.984  1.00  0.00    +0.000 HD
ENDBRANCH  36  37
ENDBRANCH  30  36
ENDBRANCH  26  27
ENDBRANCH   2  26
TORSDOF 11
