REMARK  Name = SANCDB_00974_minRM1.pdb
AUTHORGENERATED BY OPEN BABEL 2.3.2
REMARK  6 active torsions:
REMARK  status: ('A' for Active; 'I' for Inactive)
REMARK    1  A    between atoms: C_1  and  O_2
REMARK    2  A    between atoms: O_2  and  C_3
REMARK    3  A    between atoms: C_4  and  C_16
REMARK    4  A    between atoms: C_8  and  O_15
REMARK    5  A    between atoms: C_10  and  O_14
REMARK    6  A    between atoms: C_19  and  O_22
REMARK                            x       y       z     vdW  Elec       q    Type
REMARK                         _______ _______ _______ _____ _____    ______ ____
ROOT
ATOM      1  C   UNL     1      -0.171  -1.317  -0.024  1.00  0.00    +0.000 A 
ATOM      2  C   UNL     1       0.385  -0.102  -0.208  1.00  0.00    +0.000 A 
ATOM      3  O   UNL     1      -0.304   1.099  -0.171  1.00  0.00    +0.000 OA
ATOM      4  C   UNL     1      -1.658   1.079   0.031  1.00  0.00    +0.000 A 
ATOM      5  C   UNL     1      -2.309   2.314   0.050  1.00  0.00    +0.000 A 
ATOM      6  C   UNL     1      -3.686   2.355   0.251  1.00  0.00    +0.000 A 
ATOM      7  C   UNL     1      -4.416   1.185   0.433  1.00  0.00    +0.000 A 
ATOM      8  C   UNL     1      -3.760  -0.043   0.411  1.00  0.00    +0.000 A 
ATOM      9  C   UNL     1      -2.376  -0.099   0.210  1.00  0.00    +0.000 A 
ATOM     10  C   UNL     1      -1.648  -1.375   0.183  1.00  0.00    +0.000 A 
ATOM     11  O   UNL     1      -2.272  -2.424   0.326  1.00  0.00    +0.000 OA
ENDROOT
BRANCH   2  12
ATOM     12  C   UNL     1       1.832   0.085  -0.440  1.00  0.00    +0.000 A 
ATOM     13  C   UNL     1       2.560   0.972   0.370  1.00  0.00    +0.000 A 
ATOM     14  C   UNL     1       3.925   1.180   0.155  1.00  0.00    +0.000 A 
ATOM     15  C   UNL     1       4.565   0.504  -0.878  1.00  0.00    +0.000 A 
ATOM     16  C   UNL     1       3.863  -0.371  -1.697  1.00  0.00    +0.000 A 
ATOM     17  C   UNL     1       2.499  -0.578  -1.481  1.00  0.00    +0.000 A 
BRANCH  15  18
ATOM     18  O   UNL     1       5.895   0.676  -1.124  1.00  0.00    +0.000 OA
ATOM     19  H   UNL     1       6.253   1.303  -0.475  1.00  0.00    +0.000 HD
ENDBRANCH  15  18
ENDBRANCH   2  12
BRANCH   1  21
ATOM     20  C   UNL     1       0.329  -3.391   0.992  1.00  0.00    +0.000 C 
ATOM     21  O   UNL     1       0.592  -2.475  -0.067  1.00  0.00    +0.000 OA
ENDBRANCH   1  21
BRANCH   8  22
ATOM     22  O   UNL     1      -4.533  -1.158   0.593  1.00  0.00    +0.000 OA
ATOM     23  H   UNL     1      -3.951  -1.949   0.534  1.00  0.00    +0.000 HD
ENDBRANCH   8  22
BRANCH   6  24
ATOM     24  O   UNL     1      -4.365   3.537   0.277  1.00  0.00    +0.000 OA
ATOM     25  H   UNL     1      -3.745   4.268   0.117  1.00  0.00    +0.000 HD
ENDBRANCH   6  24
TORSDOF 5
