REMARK  Name = /srv/my_project/app/compsite/backup/Dave/CORINA_stuff/newPDBs/SANC00230.pdb
AUTHORGENERATED BY OPEN BABEL 2.3.2
REMARK  19 active torsions:
REMARK  status: ('A' for Active; 'I' for Inactive)
REMARK    1  A    between atoms: C_3  and  O_5
REMARK    2  A    between atoms: O_5  and  C_6
REMARK    3  A    between atoms: C_6  and  C_7
REMARK    4  A    between atoms: C_9  and  O_11
REMARK    5  A    between atoms: O_11  and  C_12
REMARK    6  A    between atoms: C_12  and  C_13
REMARK    7  A    between atoms: C_15  and  C_16
REMARK    8  A    between atoms: C_17  and  C_18
REMARK    9  A    between atoms: C_18  and  C_19
REMARK   10  A    between atoms: C_19  and  C_20
REMARK   11  A    between atoms: C_20  and  C_21
REMARK   12  A    between atoms: C_22  and  C_23
REMARK   13  A    between atoms: C_23  and  O_24
REMARK   14  A    between atoms: C_25  and  C_26
REMARK   15  A    between atoms: C_28  and  O_30
REMARK   16  A    between atoms: O_30  and  C_31
REMARK   17  A    between atoms: C_31  and  C_32
REMARK   18  A    between atoms: C_35  and  C_36
REMARK   19  A    between atoms: C_35  and  C_37
REMARK                            x       y       z     vdW  Elec       q    Type
REMARK                         _______ _______ _______ _____ _____    ______ ____
ROOT
ATOM      1  C   UNL     1      -1.685  -0.604  -0.148  1.00  0.00    +0.000 C 
ATOM      2  C   UNL     1      -1.650  -2.096   0.256  1.00  0.00    +0.000 C 
ATOM      3  C   UNL     1      -0.291  -2.717  -0.149  1.00  0.00    +0.000 C 
ATOM      4  C   UNL     1       0.918  -1.796   0.003  1.00  0.00    +0.000 C 
ATOM      5  C   UNL     1       2.223  -2.537  -0.209  1.00  0.00    +0.000 C 
ATOM      6  C   UNL     1       0.830  -0.476   0.320  1.00  0.00    +0.000 C 
ATOM      7  C   UNL     1      -0.544   0.222   0.567  1.00  0.00    +0.000 C 
ATOM      8  C   UNL     1      -0.665   0.332   2.106  1.00  0.00    +0.000 C 
ATOM      9  C   UNL     1      -0.580   1.651  -0.039  1.00  0.00    +0.000 C 
ATOM     10  C   UNL     1      -1.949   2.326   0.079  1.00  0.00    +0.000 C 
ATOM     11  C   UNL     1      -3.001   1.517  -0.675  1.00  0.00    +0.000 C 
ATOM     12  C   UNL     1      -3.123   0.048  -0.204  1.00  0.00    +0.000 C 
ATOM     13  C   UNL     1      -3.982  -0.684  -1.273  1.00  0.00    +0.000 C 
ATOM     14  C   UNL     1      -3.941  -0.009   1.099  1.00  0.00    +0.000 C 
ENDROOT
BRANCH   2  15
ATOM     15  O   UNL     1      -1.886  -2.243   1.668  1.00  0.00    +0.000 OA
BRANCH  15  16
ATOM     16  C   UNL     1      -2.376  -3.447   2.070  1.00  0.00    +0.000 C 
ATOM     17  C   UNL     1      -2.539  -3.462   3.558  1.00  0.00    +0.000 C 
ATOM     18  O   UNL     1      -2.650  -4.381   1.331  1.00  0.00    +0.000 OA
ENDBRANCH  15  16
ENDBRANCH   2  15
BRANCH   3  19
ATOM     19  O   UNL     1      -0.386  -3.050  -1.555  1.00  0.00    +0.000 OA
BRANCH  19  20
ATOM     20  C   UNL     1      -0.162  -4.346  -1.895  1.00  0.00    +0.000 C 
ATOM     21  C   UNL     1      -0.372  -4.526  -3.367  1.00  0.00    +0.000 C 
ATOM     22  O   UNL     1       0.181  -5.241  -1.137  1.00  0.00    +0.000 OA
ENDBRANCH  19  20
ENDBRANCH   3  19
BRANCH   6  23
ATOM     23  C   UNL     1       2.084   0.371   0.551  1.00  0.00    +0.000 C 
BRANCH  23  24
ATOM     24  C   UNL     1       2.703   0.907  -0.749  1.00  0.00    +0.000 C 
BRANCH  24  25
ATOM     25  C   UNL     1       3.972   1.704  -0.500  1.00  0.00    +0.000 C 
ATOM     26  C   UNL     1       3.768   3.055   0.131  1.00  0.00    +0.000 C 
ATOM     27  C   UNL     1       5.170   1.202  -0.863  1.00  0.00    +0.000 C 
BRANCH  27  28
ATOM     28  C   UNL     1       6.520   1.813  -0.680  1.00  0.00    +0.000 C 
BRANCH  28  29
ATOM     29  O   UNL     1       7.375   0.807  -0.157  1.00  0.00    +0.000 OA
ATOM     30  H   UNL     1       8.238   1.226  -0.007  1.00  0.00    +0.000 HD
ENDBRANCH  28  29
ENDBRANCH  27  28
ENDBRANCH  24  25
ENDBRANCH  23  24
ENDBRANCH   6  23
BRANCH  10  31
ATOM     31  O   UNL     1      -1.897   3.627  -0.545  1.00  0.00    +0.000 OA
BRANCH  31  32
ATOM     32  C   UNL     1      -1.403   4.638   0.220  1.00  0.00    +0.000 C 
ATOM     33  C   UNL     1      -1.414   5.918  -0.558  1.00  0.00    +0.000 C 
ATOM     34  O   UNL     1      -1.001   4.532   1.370  1.00  0.00    +0.000 OA
ENDBRANCH  31  32
ENDBRANCH  10  31
TORSDOF 11
