REMARK  Name = /srv/my_project/app/compsite/backup/Dave/CORINA_stuff/newPDBs/SANC00336.pdb
AUTHORGENERATED BY OPEN BABEL 2.3.2
REMARK  6 active torsions:
REMARK  status: ('A' for Active; 'I' for Inactive)
REMARK    1  A    between atoms: C_1  and  O_2
REMARK    2  A    between atoms: O_2  and  C_3
REMARK    3  A    between atoms: C_5  and  O_6
REMARK    4  A    between atoms: C_11  and  C_13
REMARK    5  A    between atoms: C_13  and  C_14
REMARK    6  A    between atoms: C_17  and  O_18
REMARK                            x       y       z     vdW  Elec       q    Type
REMARK                         _______ _______ _______ _____ _____    ______ ____
ROOT
ATOM      1  C   UNL     1       3.255   1.132  -0.616  1.00  0.00    +0.000 A 
ATOM      2  C   UNL     1       4.395   0.471  -1.085  1.00  0.00    +0.000 A 
ATOM      3  C   UNL     1       4.353  -0.903  -1.288  1.00  0.00    +0.000 A 
ATOM      4  C   UNL     1       3.191  -1.623  -1.038  1.00  0.00    +0.000 A 
ATOM      5  C   UNL     1       2.050  -0.963  -0.577  1.00  0.00    +0.000 A 
ATOM      6  O   UNL     1       0.951  -1.755  -0.378  1.00  0.00    +0.000 OA
ATOM      7  C   UNL     1      -0.044  -1.164   0.463  1.00  0.00    +0.000 C 
ATOM      8  C   UNL     1      -0.443   0.216  -0.040  1.00  0.00    +0.000 C 
ATOM      9  C   UNL     1       0.804   1.075   0.051  1.00  0.00    +0.000 C 
ATOM     10  O   UNL     1       0.772   2.238   0.437  1.00  0.00    +0.000 OA
ATOM     11  C   UNL     1       2.068   0.423  -0.378  1.00  0.00    +0.000 A 
ENDROOT
BRANCH   1  13
ATOM     12  C   UNL     1       3.791   2.872   0.789  1.00  0.00    +0.000 C 
ATOM     13  O   UNL     1       3.329   2.495  -0.509  1.00  0.00    +0.000 OA
ENDBRANCH   1  13
BRANCH   3  14
ATOM     14  O   UNL     1       5.439  -1.589  -1.743  1.00  0.00    +0.000 OA
ATOM     15  H   UNL     1       6.162  -0.962  -1.914  1.00  0.00    +0.000 HD
ENDBRANCH   3  14
BRANCH   8  16
ATOM     16  C   UNL     1      -1.583   0.834   0.781  1.00  0.00    +0.000 C 
BRANCH  16  17
ATOM     17  C   UNL     1      -2.889   0.085   0.658  1.00  0.00    +0.000 A 
ATOM     18  C   UNL     1      -3.611   0.106  -0.545  1.00  0.00    +0.000 A 
ATOM     19  C   UNL     1      -4.813  -0.595  -0.665  1.00  0.00    +0.000 A 
ATOM     20  C   UNL     1      -5.295  -1.317   0.422  1.00  0.00    +0.000 A 
ATOM     21  C   UNL     1      -4.597  -1.345   1.623  1.00  0.00    +0.000 A 
ATOM     22  C   UNL     1      -3.397  -0.644   1.743  1.00  0.00    +0.000 A 
BRANCH  20  23
ATOM     23  O   UNL     1      -6.463  -2.016   0.349  1.00  0.00    +0.000 OA
ATOM     24  H   UNL     1      -6.841  -1.893  -0.537  1.00  0.00    +0.000 HD
ENDBRANCH  20  23
ENDBRANCH  16  17
ENDBRANCH   8  16
TORSDOF 5
