REMARK  Name = /srv/my_project/app/compsite/backup/Dave/CORINA_stuff/newPDBs/SANC00176.pdb
AUTHORGENERATED BY OPEN BABEL 2.3.2
REMARK  5 active torsions:
REMARK  status: ('A' for Active; 'I' for Inactive)
REMARK    1  A    between atoms: C_1  and  C_2
REMARK    2  A    between atoms: C_3  and  O_4
REMARK    3  A    between atoms: C_7  and  C_8
REMARK    4  A    between atoms: C_8  and  C_9
REMARK    5  A    between atoms: C_8  and  C_10
REMARK                            x       y       z     vdW  Elec       q    Type
REMARK                         _______ _______ _______ _____ _____    ______ ____
ROOT
ATOM      1  C   UNL     1       3.710   0.220  -0.614  1.00  0.00    +0.000 C 
ATOM      2  C   UNL     1       2.236   0.077  -0.353  1.00  0.00    +0.000 C 
ATOM      3  C   UNL     1       1.653   0.510   0.777  1.00  0.00    +0.000 C 
ATOM      4  C   UNL     1       0.191   0.290   1.029  1.00  0.00    +0.000 C 
ATOM      5  O   UNL     1      -0.268   0.741   2.079  1.00  0.00    +0.000 OA
ATOM      6  C   UNL     1      -0.597  -0.551   0.027  1.00  0.00    +0.000 C 
ATOM      7  C   UNL     1      -0.044  -0.290  -1.381  1.00  0.00    +0.000 C 
ATOM      8  C   UNL     1       1.453  -0.588  -1.457  1.00  0.00    +0.000 C 
ENDROOT
BRANCH   6   9
ATOM      9  C   UNL     1      -2.135  -0.353   0.076  1.00  0.00    +0.000 C 
ATOM     10  C   UNL     1      -2.591   1.096  -0.115  1.00  0.00    +0.000 C 
ATOM     11  C   UNL     1      -2.753  -0.940   1.350  1.00  0.00    +0.000 C 
ENDBRANCH   6   9
BRANCH   3  12
ATOM     12  O   UNL     1       2.364   1.151   1.774  1.00  0.00    +0.000 OA
ATOM     13  H   UNL     1       1.696   1.351   2.465  1.00  0.00    +0.000 HD
ENDBRANCH   3  12
TORSDOF 2
