REMARK  Name = /srv/my_project/app/compsite/backup/Dave/CORINA_stuff/newPDBs/SANC00704.pdb
AUTHORGENERATED BY OPEN BABEL 2.3.2
REMARK  3 active torsions:
REMARK  status: ('A' for Active; 'I' for Inactive)
REMARK    1  A    between atoms: C_1  and  C_2
REMARK    2  A    between atoms: C_2  and  C_3
REMARK    3  A    between atoms: C_9  and  O_10
REMARK                            x       y       z     vdW  Elec       q    Type
REMARK                         _______ _______ _______ _____ _____    ______ ____
ROOT
ATOM      1  C   UNL     1      -2.903  -1.677  -0.461  1.00  0.00    +0.000 C 
ATOM      2  C   UNL     1      -2.471  -0.330   0.130  1.00  0.00    +0.000 C 
ATOM      3  C   UNL     1      -3.707   0.549   0.365  1.00  0.00    +0.000 C 
ATOM      4  C   UNL     1      -1.760  -0.546   1.441  1.00  0.00    +0.000 C 
ATOM      5  C   UNL     1      -0.440  -0.398   1.585  1.00  0.00    +0.000 C 
ATOM      6  C   UNL     1       0.362  -0.031   0.415  1.00  0.00    +0.000 A 
ATOM      7  C   UNL     1      -0.323   0.331  -0.763  1.00  0.00    +0.000 A 
ATOM      8  O   UNL     1      -1.690   0.354  -0.863  1.00  0.00    +0.000 OA
ATOM      9  C   UNL     1       0.384   0.732  -1.905  1.00  0.00    +0.000 A 
ATOM     10  C   UNL     1       1.771   0.766  -1.905  1.00  0.00    +0.000 A 
ATOM     11  C   UNL     1       2.443   0.396  -0.743  1.00  0.00    +0.000 A 
ATOM     12  O   UNL     1       3.853   0.453  -0.807  1.00  0.00    +0.000 OA
ATOM     13  C   UNL     1       4.646   0.114   0.277  1.00  0.00    +0.000 A 
ATOM     14  O   UNL     1       5.869   0.162   0.241  1.00  0.00    +0.000 OA
ATOM     15  C   UNL     1       3.942  -0.315   1.493  1.00  0.00    +0.000 A 
ATOM     16  C   UNL     1       2.608  -0.374   1.569  1.00  0.00    +0.000 A 
ATOM     17  C   UNL     1       1.775  -0.004   0.423  1.00  0.00    +0.000 A 
ENDROOT
BRANCH   9  18
ATOM     18  O   UNL     1      -0.308   1.087  -3.032  1.00  0.00    +0.000 OA
ATOM     19  H   UNL     1       0.317   1.359  -3.723  1.00  0.00    +0.000 HD
ENDBRANCH   9  18
TORSDOF 1
