REMARK  Name = SANCDB_01107_minRM1.pdb
AUTHORGENERATED BY OPEN BABEL 2.3.2
REMARK  12 active torsions:
REMARK  status: ('A' for Active; 'I' for Inactive)
REMARK    1  A    between atoms: C_1  and  C_2
REMARK    2  A    between atoms: C_2  and  C_3
REMARK    3  A    between atoms: C_3  and  C_4
REMARK    4  A    between atoms: C_3  and  C_28
REMARK    5  A    between atoms: C_5  and  C_6
REMARK    6  A    between atoms: C_6  and  C_7
REMARK    7  A    between atoms: C_6  and  C_8
REMARK    8  A    between atoms: C_12  and  C_27
REMARK    9  A    between atoms: C_20  and  C_26
REMARK   10  A    between atoms: C_23  and  O_25
REMARK   11  A    between atoms: C_28  and  C_29
REMARK   12  A    between atoms: C_28  and  C_30
REMARK                            x       y       z     vdW  Elec       q    Type
REMARK                         _______ _______ _______ _____ _____    ______ ____
ROOT
ATOM      1  C   UNL     1      -1.170  -0.236  -0.412  1.00  0.00    +0.000 C 
ATOM      2  C   UNL     1      -1.184  -1.728  -0.857  1.00  0.00    +0.000 C 
ATOM      3  C   UNL     1       0.273  -2.202  -0.901  1.00  0.00    +0.000 C 
ATOM      4  C   UNL     1       1.057  -1.067  -0.248  1.00  0.00    +0.000 C 
ATOM      5  C   UNL     1       0.299   0.207  -0.700  1.00  0.00    +0.000 C 
ATOM      6  C   UNL     1       0.817   1.361   0.181  1.00  0.00    +0.000 C 
ATOM      7  C   UNL     1       2.336   1.553   0.041  1.00  0.00    +0.000 C 
ATOM      8  C   UNL     1       3.170   0.265   0.277  1.00  0.00    +0.000 C 
ATOM      9  C   UNL     1       2.556  -0.964  -0.407  1.00  0.00    +0.000 C 
ATOM     10  C   UNL     1       3.307  -1.909  -1.002  1.00  0.00    +0.000 C 
ATOM     11  C   UNL     1       4.808  -1.910  -1.004  1.00  0.00    +0.000 C 
ATOM     12  C   UNL     1       5.387  -0.941   0.037  1.00  0.00    +0.000 C 
ATOM     13  C   UNL     1       4.706   0.460  -0.049  1.00  0.00    +0.000 C 
ATOM     14  C   UNL     1       5.355   1.394   1.010  1.00  0.00    +0.000 C 
ATOM     15  C   UNL     1       6.879   1.454   0.911  1.00  0.00    +0.000 C 
ATOM     16  C   UNL     1       7.508   0.066   0.982  1.00  0.00    +0.000 C 
ATOM     17  C   UNL     1       6.918  -0.886  -0.057  1.00  0.00    +0.000 C 
ATOM     18  C   UNL     1       4.906   1.088  -1.455  1.00  0.00    +0.000 C 
ATOM     19  C   UNL     1       0.508   0.526  -2.200  1.00  0.00    +0.000 C 
ENDROOT
BRANCH   1  20
ATOM     20  C   UNL     1      -2.345   0.572  -1.030  1.00  0.00    +0.000 C 
ATOM     21  C   UNL     1      -2.323   2.058  -0.655  1.00  0.00    +0.000 C 
BRANCH  20  23
ATOM     22  C   UNL     1      -4.524   0.271   0.293  1.00  0.00    +0.000 C 
ATOM     23  C   UNL     1      -3.672  -0.089  -0.683  1.00  0.00    +0.000 C 
BRANCH  22  24
ATOM     24  C   UNL     1      -5.834  -0.448   0.578  1.00  0.00    +0.000 C 
BRANCH  24  25
ATOM     25  C   UNL     1      -7.020   0.516   0.281  1.00  0.00    +0.000 C 
ATOM     26  C   UNL     1      -7.287   1.543   1.385  1.00  0.00    +0.000 C 
ATOM     27  C   UNL     1      -8.312  -0.227  -0.074  1.00  0.00    +0.000 C 
ENDBRANCH  24  25
BRANCH  24  29
ATOM     28  C   UNL     1      -6.890  -1.939   2.408  1.00  0.00    +0.000 C 
ATOM     29  C   UNL     1      -5.740  -1.032   2.004  1.00  0.00    +0.000 C 
ENDBRANCH  24  29
ENDBRANCH  22  24
ENDBRANCH  20  23
ENDBRANCH   1  20
BRANCH  16  30
ATOM     30  O   UNL     1       8.915   0.168   0.790  1.00  0.00    +0.000 OA
ATOM     31  H   UNL     1       9.070   0.545  -0.093  1.00  0.00    +0.000 HD
ENDBRANCH  16  30
TORSDOF 6
