REMARK  Name = /srv/my_project/app/compsite/backup/Dave/CORINA_stuff/newPDBs/SANC00521.pdb
AUTHORGENERATED BY OPEN BABEL 2.3.2
REMARK  6 active torsions:
REMARK  status: ('A' for Active; 'I' for Inactive)
REMARK    1  A    between atoms: C_2  and  C_3
REMARK    2  A    between atoms: C_2  and  C_12
REMARK    3  A    between atoms: C_4  and  C_5
REMARK    4  A    between atoms: C_9  and  O_10
REMARK    5  A    between atoms: C_15  and  O_16
REMARK    6  A    between atoms: C_18  and  O_19
REMARK                            x       y       z     vdW  Elec       q    Type
REMARK                         _______ _______ _______ _____ _____    ______ ____
ROOT
ATOM      1  O   UNL     1       1.725  -1.634  -2.554  1.00  0.00    +0.000 OA
ATOM      2  C   UNL     1       1.308  -1.117  -1.518  1.00  0.00    +0.000 C 
ENDROOT
BRANCH   2   3
ATOM      3  C   UNL     1       2.282  -0.540  -0.557  1.00  0.00    +0.000 A 
ATOM      4  C   UNL     1       2.011  -0.473   0.818  1.00  0.00    +0.000 A 
ATOM      5  C   UNL     1       2.951   0.082   1.690  1.00  0.00    +0.000 A 
ATOM      6  C   UNL     1       4.163   0.552   1.196  1.00  0.00    +0.000 A 
ATOM      7  C   UNL     1       4.463   0.467  -0.159  1.00  0.00    +0.000 A 
ATOM      8  C   UNL     1       3.527  -0.092  -1.028  1.00  0.00    +0.000 A 
BRANCH   6   9
ATOM      9  O   UNL     1       5.046   1.087   2.086  1.00  0.00    +0.000 OA
ATOM     10  H   UNL     1       5.844   1.363   1.605  1.00  0.00    +0.000 HD
ENDBRANCH   6   9
BRANCH   8  11
ATOM     11  O   UNL     1       3.900  -0.177  -2.345  1.00  0.00    +0.000 OA
ATOM     12  H   UNL     1       3.253  -0.759  -2.804  1.00  0.00    +0.000 HD
ENDBRANCH   8  11
ENDBRANCH   2   3
BRANCH   2  13
ATOM     13  C   UNL     1      -0.154  -1.074  -1.268  1.00  0.00    +0.000 C 
ATOM     14  C   UNL     1      -0.780  -0.023  -0.716  1.00  0.00    +0.000 C 
BRANCH  14  15
ATOM     15  C   UNL     1      -2.233   0.036  -0.503  1.00  0.00    +0.000 A 
ATOM     16  C   UNL     1      -3.151  -0.464  -1.437  1.00  0.00    +0.000 A 
ATOM     17  C   UNL     1      -4.527  -0.364  -1.207  1.00  0.00    +0.000 A 
ATOM     18  C   UNL     1      -5.001   0.246  -0.047  1.00  0.00    +0.000 A 
ATOM     19  C   UNL     1      -4.091   0.757   0.872  1.00  0.00    +0.000 A 
ATOM     20  C   UNL     1      -2.719   0.662   0.651  1.00  0.00    +0.000 A 
BRANCH  19  21
ATOM     21  O   UNL     1      -4.507   1.368   2.018  1.00  0.00    +0.000 OA
ATOM     22  H   UNL     1      -5.478   1.368   2.035  1.00  0.00    +0.000 HD
ENDBRANCH  19  21
ENDBRANCH  14  15
ENDBRANCH   2  13
TORSDOF 6
