REMARK  Name = SANCDB_00906_minRM1.pdb
AUTHORGENERATED BY OPEN BABEL 2.3.2
REMARK  5 active torsions:
REMARK  status: ('A' for Active; 'I' for Inactive)
REMARK    1  A    between atoms: C_1  and  C_2
REMARK    2  A    between atoms: C_5  and  O_27
REMARK    3  A    between atoms: C_14  and  C_26
REMARK    4  A    between atoms: C_15  and  O_25
REMARK    5  A    between atoms: C_18  and  C_19
REMARK                            x       y       z     vdW  Elec       q    Type
REMARK                         _______ _______ _______ _____ _____    ______ ____
ROOT
ATOM      1  C   UNL     1      -2.638   1.331   1.092  1.00  0.00    +0.000 C 
ATOM      2  C   UNL     1      -2.451   0.191   0.054  1.00  0.00    +0.000 C 
ATOM      3  C   UNL     1      -3.275   0.561  -1.223  1.00  0.00    +0.000 C 
ATOM      4  C   UNL     1      -4.489  -0.336  -1.500  1.00  0.00    +0.000 C 
ATOM      5  C   UNL     1      -5.307  -0.670  -0.255  1.00  0.00    +0.000 C 
ATOM      6  C   UNL     1      -4.461  -1.151   0.929  1.00  0.00    +0.000 C 
ATOM      7  C   UNL     1      -2.957  -1.175   0.612  1.00  0.00    +0.000 C 
ATOM      8  C   UNL     1      -2.145  -1.667   1.815  1.00  0.00    +0.000 C 
ATOM      9  C   UNL     1      -0.659  -1.782   1.474  1.00  0.00    +0.000 C 
ATOM     10  C   UNL     1      -0.083  -0.468   0.912  1.00  0.00    +0.000 C 
ATOM     11  C   UNL     1      -0.924   0.028  -0.299  1.00  0.00    +0.000 C 
ATOM     12  C   UNL     1      -0.295   1.259  -0.985  1.00  0.00    +0.000 C 
ATOM     13  C   UNL     1       0.885   1.855  -0.232  1.00  0.00    +0.000 C 
ATOM     14  C   UNL     1       2.013   0.864   0.196  1.00  0.00    +0.000 C 
ATOM     15  C   UNL     1       1.434  -0.548   0.573  1.00  0.00    +0.000 C 
ATOM     16  C   UNL     1       1.770  -1.494  -0.601  1.00  0.00    +0.000 C 
ATOM     17  C   UNL     1       2.387  -0.643  -1.699  1.00  0.00    +0.000 C 
ATOM     18  C   UNL     1       2.990   0.582  -1.000  1.00  0.00    +0.000 C 
ATOM     19  C   UNL     1       2.720   1.557   1.388  1.00  0.00    +0.000 C 
ENDROOT
BRANCH  18  20
ATOM     20  C   UNL     1       4.448   0.389  -0.656  1.00  0.00    +0.000 C 
ATOM     21  C   UNL     1       5.101  -0.714  -0.287  1.00  0.00    +0.000 C 
ATOM     22  C   UNL     1       6.504  -0.351  -0.106  1.00  0.00    +0.000 C 
ATOM     23  O   UNL     1       7.384  -1.122   0.230  1.00  0.00    +0.000 OA
ATOM     24  O   UNL     1       6.663   0.969  -0.385  1.00  0.00    +0.000 OA
ATOM     25  C   UNL     1       5.400   1.524  -0.746  1.00  0.00    +0.000 C 
ENDBRANCH  18  20
BRANCH  15  26
ATOM     26  O   UNL     1       2.136  -1.041   1.721  1.00  0.00    +0.000 OA
ATOM     27  H   UNL     1       1.922  -1.982   1.841  1.00  0.00    +0.000 HD
ENDBRANCH  15  26
BRANCH   5  28
ATOM     28  O   UNL     1      -6.090   0.457   0.133  1.00  0.00    +0.000 OA
ATOM     29  H   UNL     1      -5.497   1.215   0.262  1.00  0.00    +0.000 HD
ENDBRANCH   5  28
TORSDOF 3
