REMARK  Name = /srv/my_project/app/compsite/backup/Dave/CORINA_stuff/newPDBs/SANC00265.pdb
AUTHORGENERATED BY OPEN BABEL 2.3.2
REMARK  8 active torsions:
REMARK  status: ('A' for Active; 'I' for Inactive)
REMARK    1  A    between atoms: C_4  and  C_6
REMARK    2  A    between atoms: C_9  and  O_11
REMARK    3  A    between atoms: C_12  and  C_13
REMARK    4  A    between atoms: C_16  and  C_17
REMARK    5  A    between atoms: C_22  and  C_23
REMARK    6  A    between atoms: C_24  and  O_25
REMARK    7  A    between atoms: C_30  and  C_31
REMARK    8  A    between atoms: C_34  and  C_35
REMARK                            x       y       z     vdW  Elec       q    Type
REMARK                         _______ _______ _______ _____ _____    ______ ____
ROOT
ATOM      1  C   UNL     1       2.346  -0.475  -0.698  1.00  0.00    +0.000 C 
ATOM      2  C   UNL     1       2.796  -1.566  -1.719  1.00  0.00    +0.000 C 
ATOM      3  C   UNL     1       4.306  -1.701  -1.922  1.00  0.00    +0.000 C 
ATOM      4  C   UNL     1       4.896  -0.563  -2.747  1.00  0.00    +0.000 C 
ATOM      5  C   UNL     1       5.003  -1.850  -0.588  1.00  0.00    +0.000 C 
ATOM      6  O   UNL     1       6.212  -2.081  -0.503  1.00  0.00    +0.000 OA
ATOM      7  C   UNL     1       4.135  -1.750   0.668  1.00  0.00    +0.000 C 
ATOM      8  C   UNL     1       3.215  -0.487   0.624  1.00  0.00    +0.000 C 
ATOM      9  C   UNL     1       4.160   0.754   0.660  1.00  0.00    +0.000 C 
ATOM     10  C   UNL     1       2.378  -0.471   1.933  1.00  0.00    +0.000 C 
ATOM     11  C   UNL     1       0.992   0.188   1.958  1.00  0.00    +0.000 C 
ATOM     12  C   UNL     1       0.346   0.590   0.597  1.00  0.00    +0.000 C 
ATOM     13  C   UNL     1       0.855   2.025   0.278  1.00  0.00    +0.000 C 
ATOM     14  C   UNL     1      -1.215   0.717   0.678  1.00  0.00    +0.000 C 
ATOM     15  C   UNL     1      -1.860   0.801   1.859  1.00  0.00    +0.000 C 
ATOM     16  C   UNL     1      -3.290   0.905   1.973  1.00  0.00    +0.000 C 
ATOM     17  C   UNL     1      -4.136   0.730   0.941  1.00  0.00    +0.000 C 
ATOM     18  C   UNL     1      -5.600   0.752   1.141  1.00  0.00    +0.000 C 
ATOM     19  C   UNL     1      -6.171   1.206   2.461  1.00  0.00    +0.000 C 
ATOM     20  C   UNL     1      -6.406   0.350   0.141  1.00  0.00    +0.000 C 
ATOM     21  C   UNL     1      -5.835  -0.070  -1.167  1.00  0.00    +0.000 C 
ATOM     22  O   UNL     1      -6.575  -0.502  -2.048  1.00  0.00    +0.000 OA
ATOM     23  C   UNL     1      -4.386   0.100  -1.386  1.00  0.00    +0.000 C 
ATOM     24  C   UNL     1      -3.562   0.507  -0.400  1.00  0.00    +0.000 C 
ATOM     25  C   UNL     1      -2.043   0.799  -0.632  1.00  0.00    +0.000 C 
ATOM     26  C   UNL     1      -1.991   2.241  -1.200  1.00  0.00    +0.000 C 
ATOM     27  C   UNL     1      -1.478  -0.184  -1.686  1.00  0.00    +0.000 C 
ATOM     28  C   UNL     1       0.045  -0.200  -1.811  1.00  0.00    +0.000 C 
ATOM     29  C   UNL     1       0.771  -0.498  -0.467  1.00  0.00    +0.000 C 
ATOM     30  C   UNL     1       0.315  -1.924  -0.017  1.00  0.00    +0.000 C 
ENDROOT
BRANCH   7  31
ATOM     31  O   UNL     1       4.960  -1.736   1.833  1.00  0.00    +0.000 OA
ATOM     32  H   UNL     1       5.822  -2.115   1.562  1.00  0.00    +0.000 HD
ENDBRANCH   7  31
BRANCH  20  33
ATOM     33  O   UNL     1      -7.784   0.301   0.263  1.00  0.00    +0.000 OA
ATOM     34  H   UNL     1      -8.099  -0.049  -0.598  1.00  0.00    +0.000 HD
ENDBRANCH  20  33
TORSDOF 2
