REMARK  Name = /srv/my_project/app/compsite/backup/Dave/CORINA_stuff/newPDBs/SANC00153.pdb
AUTHORGENERATED BY OPEN BABEL 2.3.2
REMARK  15 active torsions:
REMARK  status: ('A' for Active; 'I' for Inactive)
REMARK    1  A    between atoms: C_2  and  C_3
REMARK    2  A    between atoms: C_3  and  C_5
REMARK    3  A    between atoms: C_3  and  C_6
REMARK    4  A    between atoms: C_6  and  C_7
REMARK    5  A    between atoms: C_7  and  C_8
REMARK    6  A    between atoms: C_8  and  C_9
REMARK    7  A    between atoms: C_9  and  C_10
REMARK    8  A    between atoms: C_9  and  C_11
REMARK    9  A    between atoms: C_18  and  O_20
REMARK   10  A    between atoms: C_24  and  O_26
REMARK   11  A    between atoms: C_29  and  C_30
REMARK   12  A    between atoms: C_30  and  O_31
REMARK   13  A    between atoms: O_31  and  C_32
REMARK   14  A    between atoms: C_32  and  C_33
REMARK   15  A    between atoms: C_38  and  C_39
REMARK                            x       y       z     vdW  Elec       q    Type
REMARK                         _______ _______ _______ _____ _____    ______ ____
ROOT
ATOM      1  C   UNL     1       2.009   0.156  -0.388  1.00  0.00    +0.000 C 
ATOM      2  C   UNL     1       2.109   1.169   0.789  1.00  0.00    +0.000 C 
ATOM      3  C   UNL     1       0.697   1.333   1.366  1.00  0.00    +0.000 C 
ATOM      4  C   UNL     1      -0.116   0.256   0.662  1.00  0.00    +0.000 C 
ATOM      5  C   UNL     1      -1.653   0.360   0.677  1.00  0.00    +0.000 C 
ATOM      6  C   UNL     1      -2.190   0.477   2.115  1.00  0.00    +0.000 C 
ATOM      7  C   UNL     1      -3.618   0.074   2.277  1.00  0.00    +0.000 C 
ATOM      8  C   UNL     1      -4.363  -0.530   1.335  1.00  0.00    +0.000 C 
ATOM      9  C   UNL     1      -5.763  -1.003   1.650  1.00  0.00    +0.000 C 
ATOM     10  C   UNL     1      -5.857  -2.537   1.600  1.00  0.00    +0.000 C 
ATOM     11  C   UNL     1      -4.705  -3.183   0.819  1.00  0.00    +0.000 C 
ATOM     12  C   UNL     1      -4.343  -2.346  -0.413  1.00  0.00    +0.000 C 
ATOM     13  C   UNL     1      -3.831  -0.902  -0.061  1.00  0.00    +0.000 C 
ATOM     14  C   UNL     1      -2.247  -0.884  -0.052  1.00  0.00    +0.000 C 
ATOM     15  C   UNL     1      -1.609  -1.062  -1.456  1.00  0.00    +0.000 C 
ATOM     16  C   UNL     1      -0.070  -1.055  -1.438  1.00  0.00    +0.000 C 
ATOM     17  C   UNL     1       0.494   0.206  -0.762  1.00  0.00    +0.000 C 
ATOM     18  C   UNL     1       0.178   1.456  -1.619  1.00  0.00    +0.000 C 
ENDROOT
BRANCH   1  19
ATOM     19  C   UNL     1       3.073   0.430  -1.486  1.00  0.00    +0.000 C 
ATOM     20  C   UNL     1       2.982  -0.548  -2.661  1.00  0.00    +0.000 C 
BRANCH  19  21
ATOM     21  C   UNL     1       4.523   0.455  -0.931  1.00  0.00    +0.000 C 
BRANCH  21  22
ATOM     22  C   UNL     1       4.980  -0.836  -0.247  1.00  0.00    +0.000 C 
BRANCH  22  23
ATOM     23  C   UNL     1       6.490  -0.921   0.015  1.00  0.00    +0.000 C 
BRANCH  23  24
ATOM     24  C   UNL     1       7.128   0.066   1.013  1.00  0.00    +0.000 C 
ATOM     25  C   UNL     1       6.310   0.252   2.289  1.00  0.00    +0.000 C 
ATOM     26  C   UNL     1       7.477   1.416   0.385  1.00  0.00    +0.000 C 
ENDBRANCH  23  24
ENDBRANCH  22  23
ENDBRANCH  21  22
ENDBRANCH  19  21
ENDBRANCH   1  19
BRANCH   6  27
ATOM     27  O   UNL     1      -2.088   1.829   2.552  1.00  0.00    +0.000 OA
ATOM     28  H   UNL     1      -2.715   2.343   2.013  1.00  0.00    +0.000 HD
ENDBRANCH   6  27
BRANCH  10  29
ATOM     29  O   UNL     1      -7.096  -2.886   0.978  1.00  0.00    +0.000 OA
ATOM     30  H   UNL     1      -7.186  -3.854   1.026  1.00  0.00    +0.000 HD
ENDBRANCH  10  29
BRANCH  13  31
ATOM     31  C   UNL     1      -4.441   0.064  -1.127  1.00  0.00    +0.000 C 
BRANCH  31  32
ATOM     32  O   UNL     1      -3.996   1.414  -0.940  1.00  0.00    +0.000 OA
BRANCH  32  33
ATOM     33  C   UNL     1      -4.380   2.277  -1.917  1.00  0.00    +0.000 C 
ATOM     34  C   UNL     1      -3.858   3.649  -1.618  1.00  0.00    +0.000 C 
ATOM     35  O   UNL     1      -5.047   1.990  -2.900  1.00  0.00    +0.000 OA
ENDBRANCH  32  33
ENDBRANCH  31  32
ENDBRANCH  13  31
TORSDOF 10
