REMARK  Name = /srv/my_project/app/compsite/backup/Dave/CORINA_stuff/newPDBs/SANC00229.pdb
AUTHORGENERATED BY OPEN BABEL 2.3.2
REMARK  5 active torsions:
REMARK  status: ('A' for Active; 'I' for Inactive)
REMARK    1  A    between atoms: C_1  and  O_2
REMARK    2  A    between atoms: O_2  and  C_3
REMARK    3  A    between atoms: C_4  and  O_5
REMARK    4  A    between atoms: C_7  and  C_8
REMARK    5  A    between atoms: C_14  and  O_15
REMARK                            x       y       z     vdW  Elec       q    Type
REMARK                         _______ _______ _______ _____ _____    ______ ____
ROOT
ATOM      1  C   UNL     1      -2.317  -0.093  -0.784  1.00  0.00    +0.000 A 
ATOM      2  C   UNL     1      -2.810   1.170  -0.496  1.00  0.00    +0.000 A 
ATOM      3  C   UNL     1      -2.015   2.115   0.129  1.00  0.00    +0.000 A 
ATOM      4  C   UNL     1      -0.667   1.834   0.444  1.00  0.00    +0.000 A 
ATOM      5  C   UNL     1       0.044   2.906   1.229  1.00  0.00    +0.000 C 
ATOM      6  C   UNL     1      -0.085   0.604   0.035  1.00  0.00    +0.000 A 
ATOM      7  C   UNL     1       1.345   0.220   0.143  1.00  0.00    +0.000 A 
ATOM      8  C   UNL     1       2.404   1.136   0.290  1.00  0.00    +0.000 A 
ATOM      9  C   UNL     1       3.735   0.726   0.433  1.00  0.00    +0.000 A 
ATOM     10  C   UNL     1       4.055  -0.623   0.404  1.00  0.00    +0.000 A 
ATOM     11  C   UNL     1       3.047  -1.551   0.187  1.00  0.00    +0.000 A 
ATOM     12  C   UNL     1       1.710  -1.135   0.031  1.00  0.00    +0.000 A 
ATOM     13  C   UNL     1       0.700  -2.142  -0.340  1.00  0.00    +0.000 A 
ATOM     14  O   UNL     1       0.955  -3.342  -0.315  1.00  0.00    +0.000 OA
ATOM     15  O   UNL     1      -0.507  -1.660  -0.800  1.00  0.00    +0.000 OA
ATOM     16  C   UNL     1      -0.966  -0.355  -0.517  1.00  0.00    +0.000 A 
ENDROOT
BRANCH   1  18
ATOM     17  C   UNL     1      -3.220  -2.271  -0.808  1.00  0.00    +0.000 C 
ATOM     18  O   UNL     1      -3.216  -0.955  -1.359  1.00  0.00    +0.000 OA
ENDBRANCH   1  18
BRANCH   2  19
ATOM     19  O   UNL     1      -4.106   1.496  -0.781  1.00  0.00    +0.000 OA
ATOM     20  H   UNL     1      -4.474   0.716  -1.240  1.00  0.00    +0.000 HD
ENDBRANCH   2  19
BRANCH  11  21
ATOM     21  O   UNL     1       3.453  -2.858   0.118  1.00  0.00    +0.000 OA
ATOM     22  H   UNL     1       2.667  -3.430  -0.033  1.00  0.00    +0.000 HD
ENDBRANCH  11  21
TORSDOF 3
