REMARK  Name = /srv/my_project/app/compsite/backup/Dave/CORINA_stuff/newPDBs/SANC00392.pdb
AUTHORGENERATED BY OPEN BABEL 2.3.2
REMARK  26 active torsions:
REMARK  status: ('A' for Active; 'I' for Inactive)
REMARK    1  A    between atoms: C_2  and  O_3
REMARK    2  A    between atoms: O_3  and  C_4
REMARK    3  A    between atoms: C_8  and  C_9
REMARK    4  A    between atoms: C_19  and  C_20
REMARK    5  A    between atoms: C_24  and  O_26
REMARK    6  A    between atoms: O_26  and  C_27
REMARK    7  A    between atoms: C_30  and  C_32
REMARK    8  A    between atoms: C_33  and  O_35
REMARK    9  A    between atoms: C_36  and  O_38
REMARK   10  A    between atoms: O_38  and  C_39
REMARK   11  A    between atoms: C_39  and  C_40
REMARK   12  A    between atoms: C_42  and  O_44
REMARK   13  A    between atoms: C_45  and  C_47
REMARK   14  A    between atoms: C_47  and  C_49
REMARK   15  A    between atoms: C_47  and  C_50
REMARK   16  A    between atoms: C_50  and  O_52
REMARK   17  A    between atoms: C_50  and  C_53
REMARK   18  A    between atoms: C_53  and  C_54
REMARK   19  A    between atoms: C_54  and  C_55
REMARK   20  A    between atoms: C_55  and  C_56
REMARK   21  A    between atoms: C_55  and  C_57
REMARK   22  A    between atoms: C_60  and  C_62
REMARK   23  A    between atoms: C_62  and  O_63
REMARK   24  A    between atoms: C_64  and  O_66
REMARK   25  A    between atoms: C_67  and  O_69
REMARK   26  A    between atoms: C_70  and  O_72
REMARK                            x       y       z     vdW  Elec       q    Type
REMARK                         _______ _______ _______ _____ _____    ______ ____
ROOT
ATOM      1  C   UNL     1       6.212   0.369   0.804  1.00  0.00    +0.000 C 
ATOM      2  C   UNL     1       5.687   1.492  -0.094  1.00  0.00    +0.000 C 
ATOM      3  C   UNL     1       4.191   1.727   0.120  1.00  0.00    +0.000 C 
ATOM      4  C   UNL     1       3.304   0.463  -0.079  1.00  0.00    +0.000 C 
ATOM      5  C   UNL     1       3.289   0.077  -1.578  1.00  0.00    +0.000 C 
ATOM      6  C   UNL     1       3.918  -0.704   0.707  1.00  0.00    +0.000 C 
ATOM      7  C   UNL     1       3.193  -1.516   1.497  1.00  0.00    +0.000 C 
ATOM      8  C   UNL     1       1.712  -1.417   1.690  1.00  0.00    +0.000 C 
ATOM      9  C   UNL     1       1.018  -0.509   0.663  1.00  0.00    +0.000 C 
ATOM     10  C   UNL     1       1.849   0.789   0.447  1.00  0.00    +0.000 C 
ATOM     11  C   UNL     1       1.095   1.855  -0.394  1.00  0.00    +0.000 C 
ATOM     12  C   UNL     1      -0.358   2.094   0.054  1.00  0.00    +0.000 C 
ATOM     13  C   UNL     1      -1.150   0.779   0.146  1.00  0.00    +0.000 C 
ATOM     14  C   UNL     1      -1.304   0.169  -1.263  1.00  0.00    +0.000 C 
ATOM     15  C   UNL     1      -0.393  -0.138   1.133  1.00  0.00    +0.000 C 
ATOM     16  C   UNL     1      -1.388  -1.258   1.429  1.00  0.00    +0.000 C 
ATOM     17  C   UNL     1      -2.775  -0.564   1.416  1.00  0.00    +0.000 C 
ATOM     18  C   UNL     1      -2.502   0.889   0.917  1.00  0.00    +0.000 C 
ATOM     19  C   UNL     1       5.410  -0.916   0.563  1.00  0.00    +0.000 C 
ENDROOT
BRANCH  18  20
ATOM     20  C   UNL     1      -3.664   1.725   0.300  1.00  0.00    +0.000 C 
ATOM     21  C   UNL     1      -4.621   2.134   1.438  1.00  0.00    +0.000 C 
BRANCH  20  22
ATOM     22  C   UNL     1      -4.434   1.110  -0.902  1.00  0.00    +0.000 C 
BRANCH  22  23
ATOM     23  O   UNL     1      -5.732   0.655  -0.511  1.00  0.00    +0.000 OA
ATOM     24  H   UNL     1      -6.138   0.241  -1.292  1.00  0.00    +0.000 HD
ENDBRANCH  22  23
BRANCH  22  25
ATOM     25  C   UNL     1      -4.596   2.088  -2.086  1.00  0.00    +0.000 C 
BRANCH  25  26
ATOM     26  C   UNL     1      -5.462   3.319  -1.790  1.00  0.00    +0.000 C 
BRANCH  26  27
ATOM     27  C   UNL     1      -5.579   4.287  -2.984  1.00  0.00    +0.000 C 
ATOM     28  C   UNL     1      -6.304   3.662  -4.177  1.00  0.00    +0.000 C 
ATOM     29  C   UNL     1      -6.309   5.560  -2.548  1.00  0.00    +0.000 C 
ENDBRANCH  26  27
ENDBRANCH  25  26
ENDBRANCH  22  25
ENDBRANCH  20  22
ENDBRANCH  18  20
BRANCH  17  30
ATOM     30  O   UNL     1      -3.646  -1.277   0.553  1.00  0.00    +0.000 OA
BRANCH  30  31
ATOM     31  C   UNL     1      -4.232  -2.443   1.140  1.00  0.00    +0.000 C 
ATOM     32  O   UNL     1      -4.480  -3.388   0.093  1.00  0.00    +0.000 OA
ATOM     33  C   UNL     1      -5.733  -3.156  -0.548  1.00  0.00    +0.000 C 
ATOM     34  C   UNL     1      -5.756  -3.952  -1.848  1.00  0.00    +0.000 C 
ATOM     35  C   UNL     1      -6.861  -3.595   0.400  1.00  0.00    +0.000 C 
ATOM     36  C   UNL     1      -6.585  -3.157   1.856  1.00  0.00    +0.000 C 
ATOM     37  C   UNL     1      -5.511  -2.064   1.934  1.00  0.00    +0.000 C 
BRANCH  35  38
ATOM     38  O   UNL     1      -8.106  -3.058  -0.054  1.00  0.00    +0.000 OA
ATOM     39  H   UNL     1      -8.803  -3.479   0.486  1.00  0.00    +0.000 HD
ENDBRANCH  35  38
BRANCH  37  40
ATOM     40  O   UNL     1      -5.196  -1.797   3.317  1.00  0.00    +0.000 OA
ATOM     41  H   UNL     1      -5.072  -2.665   3.743  1.00  0.00    +0.000 HD
ENDBRANCH  37  40
BRANCH  36  42
ATOM     42  O   UNL     1      -6.124  -4.280   2.655  1.00  0.00    +0.000 OA
BRANCH  42  43
ATOM     43  C   UNL     1      -7.092  -5.184   2.981  1.00  0.00    +0.000 C 
ATOM     44  C   UNL     1      -6.514  -6.279   3.823  1.00  0.00    +0.000 C 
ATOM     45  O   UNL     1      -8.261  -5.117   2.629  1.00  0.00    +0.000 OA
ENDBRANCH  42  43
ENDBRANCH  36  42
ENDBRANCH  30  31
ENDBRANCH  17  30
BRANCH   1  46
ATOM     46  O   UNL     1       7.589   0.065   0.543  1.00  0.00    +0.000 OA
BRANCH  46  47
ATOM     47  C   UNL     1       8.497   1.094   0.925  1.00  0.00    +0.000 C 
ATOM     48  O   UNL     1       8.860   1.890  -0.203  1.00  0.00    +0.000 OA
ATOM     49  C   UNL     1       9.510   1.172  -1.267  1.00  0.00    +0.000 C 
ATOM     50  C   UNL     1      10.232  -0.111  -0.812  1.00  0.00    +0.000 C 
ATOM     51  C   UNL     1      10.850   0.155   0.553  1.00  0.00    +0.000 C 
ATOM     52  C   UNL     1       9.756   0.472   1.584  1.00  0.00    +0.000 C 
BRANCH  52  53
ATOM     53  O   UNL     1      10.332   1.358   2.563  1.00  0.00    +0.000 OA
ATOM     54  H   UNL     1      10.427   2.235   2.145  1.00  0.00    +0.000 HD
ENDBRANCH  52  53
BRANCH  51  55
ATOM     55  O   UNL     1      11.621  -0.987   0.960  1.00  0.00    +0.000 OA
ATOM     56  H   UNL     1      11.923  -0.800   1.870  1.00  0.00    +0.000 HD
ENDBRANCH  51  55
BRANCH  50  57
ATOM     57  O   UNL     1      11.239  -0.481  -1.761  1.00  0.00    +0.000 OA
ATOM     58  H   UNL     1      11.819  -1.107  -1.278  1.00  0.00    +0.000 HD
ENDBRANCH  50  57
BRANCH  49  59
ATOM     59  C   UNL     1       8.544   0.875  -2.423  1.00  0.00    +0.000 C 
BRANCH  59  60
ATOM     60  O   UNL     1       9.232   0.463  -3.603  1.00  0.00    +0.000 OA
ATOM     61  H   UNL     1      10.007  -0.068  -3.326  1.00  0.00    +0.000 HD
ENDBRANCH  59  60
ENDBRANCH  49  59
ENDBRANCH  46  47
ENDBRANCH   1  46
TORSDOF 19
