REMARK  Name = SANCDB_01043_minRM1.pdb
AUTHORGENERATED BY OPEN BABEL 2.3.2
REMARK  6 active torsions:
REMARK  status: ('A' for Active; 'I' for Inactive)
REMARK    1  A    between atoms: C_1  and  O_2
REMARK    2  A    between atoms: O_2  and  C_3
REMARK    3  A    between atoms: C_4  and  O_22
REMARK    4  A    between atoms: C_6  and  C_9
REMARK    5  A    between atoms: C_14  and  O_21
REMARK    6  A    between atoms: C_16  and  O_20
REMARK                            x       y       z     vdW  Elec       q    Type
REMARK                         _______ _______ _______ _____ _____    ______ ____
ROOT
ATOM      1  C   UNL     1      -0.310  -0.628   0.007  1.00  0.00    +0.000 C 
ATOM      2  C   UNL     1      -0.662  -0.991  -1.429  1.00  0.00    +0.000 C 
ATOM      3  C   UNL     1      -2.139  -1.252  -1.494  1.00  0.00    +0.000 C 
ATOM      4  O   UNL     1      -2.644  -2.046  -2.284  1.00  0.00    +0.000 OA
ATOM      5  C   UNL     1      -2.996  -0.456  -0.597  1.00  0.00    +0.000 A 
ATOM      6  C   UNL     1      -4.391  -0.532  -0.657  1.00  0.00    +0.000 A 
ATOM      7  C   UNL     1      -5.170   0.272   0.170  1.00  0.00    +0.000 A 
ATOM      8  C   UNL     1      -4.550   1.157   1.048  1.00  0.00    +0.000 A 
ATOM      9  C   UNL     1      -3.161   1.242   1.120  1.00  0.00    +0.000 A 
ATOM     10  C   UNL     1      -2.384   0.418   0.305  1.00  0.00    +0.000 A 
ATOM     11  O   UNL     1      -1.025   0.545   0.430  1.00  0.00    +0.000 OA
ENDROOT
BRANCH   1  15
ATOM     12  C   UNL     1       3.963   0.089   0.357  1.00  0.00    +0.000 A 
ATOM     13  C   UNL     1       3.400  -1.132   0.750  1.00  0.00    +0.000 A 
ATOM     14  C   UNL     1       2.026  -1.365   0.645  1.00  0.00    +0.000 A 
ATOM     15  C   UNL     1       1.178  -0.366   0.144  1.00  0.00    +0.000 A 
ATOM     16  C   UNL     1       1.743   0.855  -0.254  1.00  0.00    +0.000 A 
ATOM     17  C   UNL     1       3.120   1.082  -0.147  1.00  0.00    +0.000 A 
BRANCH  12  19
ATOM     18  C   UNL     1       5.915   1.437   0.118  1.00  0.00    +0.000 C 
ATOM     19  O   UNL     1       5.320   0.207   0.503  1.00  0.00    +0.000 OA
ENDBRANCH  12  19
BRANCH  13  20
ATOM     20  O   UNL     1       4.218  -2.115   1.243  1.00  0.00    +0.000 OA
ATOM     21  H   UNL     1       3.686  -2.887   1.486  1.00  0.00    +0.000 HD
ENDBRANCH  13  20
ENDBRANCH   1  15
BRANCH   8  22
ATOM     22  O   UNL     1      -5.348   1.934   1.834  1.00  0.00    +0.000 OA
ATOM     23  H   UNL     1      -4.792   2.506   2.389  1.00  0.00    +0.000 HD
ENDBRANCH   8  22
BRANCH   6  24
ATOM     24  O   UNL     1      -5.056  -1.369  -1.513  1.00  0.00    +0.000 OA
ATOM     25  H   UNL     1      -4.390  -1.859  -2.045  1.00  0.00    +0.000 HD
ENDBRANCH   6  24
TORSDOF 5
