REMARK  Name = SANCDB_01009_minRM1.pdb
AUTHORGENERATED BY OPEN BABEL 2.3.2
REMARK  6 active torsions:
REMARK  status: ('A' for Active; 'I' for Inactive)
REMARK    1  A    between atoms: C_1  and  O_2
REMARK    2  A    between atoms: O_2  and  C_3
REMARK    3  A    between atoms: C_3  and  C_5
REMARK    4  A    between atoms: C_7  and  O_13
REMARK    5  A    between atoms: C_8  and  O_12
REMARK    6  A    between atoms: C_9  and  O_11
REMARK                            x       y       z     vdW  Elec       q    Type
REMARK                         _______ _______ _______ _____ _____    ______ ____
ROOT
ATOM      1  C   UNL     1       0.219  -0.362  -0.175  1.00  0.00    +0.000 A 
ATOM      2  C   UNL     1      -0.814  -1.309  -0.066  1.00  0.00    +0.000 A 
ATOM      3  C   UNL     1      -2.131  -0.886   0.107  1.00  0.00    +0.000 A 
ATOM      4  C   UNL     1      -2.419   0.474   0.171  1.00  0.00    +0.000 A 
ATOM      5  C   UNL     1      -1.394   1.413   0.063  1.00  0.00    +0.000 A 
ATOM      6  C   UNL     1      -0.074   1.010  -0.110  1.00  0.00    +0.000 A 
ENDROOT
BRANCH   1   7
ATOM      7  C   UNL     1       1.606  -0.869  -0.358  1.00  0.00    +0.000 C 
ATOM      8  O   UNL     1       1.886  -2.056  -0.417  1.00  0.00    +0.000 OA
BRANCH   7  10
ATOM      9  C   UNL     1       3.842  -0.252  -0.624  1.00  0.00    +0.000 C 
ATOM     10  O   UNL     1       2.486   0.160  -0.446  1.00  0.00    +0.000 OA
ENDBRANCH   7  10
ENDBRANCH   1   7
BRANCH   5  11
ATOM     11  O   UNL     1      -1.737   2.737   0.133  1.00  0.00    +0.000 OA
ATOM     12  H   UNL     1      -0.931   3.274   0.044  1.00  0.00    +0.000 HD
ENDBRANCH   5  11
BRANCH   4  13
ATOM     13  O   UNL     1      -3.704   0.910   0.341  1.00  0.00    +0.000 OA
ATOM     14  H   UNL     1      -3.642   1.884   0.353  1.00  0.00    +0.000 HD
ENDBRANCH   4  13
BRANCH   3  15
ATOM     15  O   UNL     1      -3.144  -1.796   0.215  1.00  0.00    +0.000 OA
ATOM     16  H   UNL     1      -2.783  -2.693   0.151  1.00  0.00    +0.000 HD
ENDBRANCH   3  15
TORSDOF 5
