REMARK  Name = /srv/my_project/app/compsite/backup/Dave/CORINA_stuff/newPDBs/SANC00394.pdb
AUTHORGENERATED BY OPEN BABEL 2.3.2
REMARK  25 active torsions:
REMARK  status: ('A' for Active; 'I' for Inactive)
REMARK    1  A    between atoms: C_2  and  O_3
REMARK    2  A    between atoms: O_3  and  C_4
REMARK    3  A    between atoms: C_15  and  O_17
REMARK    4  A    between atoms: C_19  and  O_21
REMARK    5  A    between atoms: O_21  and  C_22
REMARK    6  A    between atoms: C_25  and  C_27
REMARK    7  A    between atoms: C_27  and  O_28
REMARK    8  A    between atoms: C_29  and  O_31
REMARK    9  A    between atoms: C_32  and  O_34
REMARK   10  A    between atoms: C_35  and  O_37
REMARK   11  A    between atoms: C_38  and  C_39
REMARK   12  A    between atoms: C_44  and  C_45
REMARK   13  A    between atoms: C_46  and  C_48
REMARK   14  A    between atoms: C_48  and  C_50
REMARK   15  A    between atoms: C_48  and  C_51
REMARK   16  A    between atoms: C_51  and  O_53
REMARK   17  A    between atoms: C_51  and  C_54
REMARK   18  A    between atoms: C_54  and  C_55
REMARK   19  A    between atoms: C_56  and  C_57
REMARK   20  A    between atoms: C_56  and  C_58
REMARK   21  A    between atoms: C_60  and  C_62
REMARK   22  A    between atoms: C_62  and  O_63
REMARK   23  A    between atoms: C_64  and  O_66
REMARK   24  A    between atoms: C_67  and  O_69
REMARK   25  A    between atoms: C_70  and  O_72
REMARK                            x       y       z     vdW  Elec       q    Type
REMARK                         _______ _______ _______ _____ _____    ______ ____
ROOT
ATOM      1  C   UNL     1       2.290  -0.781  -1.103  1.00  0.00    +0.000 C 
ATOM      2  C   UNL     1       1.438  -1.875  -0.432  1.00  0.00    +0.000 C 
ATOM      3  C   UNL     1       0.083  -1.218  -0.236  1.00  0.00    +0.000 C 
ATOM      4  C   UNL     1      -0.913  -1.904   0.710  1.00  0.00    +0.000 C 
ATOM      5  C   UNL     1      -1.165  -3.348   0.255  1.00  0.00    +0.000 C 
ATOM      6  C   UNL     1      -2.336  -3.981   0.927  1.00  0.00    +0.000 C 
ATOM      7  C   UNL     1      -3.287  -3.309   1.597  1.00  0.00    +0.000 C 
ATOM      8  C   UNL     1      -4.415  -4.072   2.257  1.00  0.00    +0.000 C 
ATOM      9  C   UNL     1      -5.778  -3.552   1.810  1.00  0.00    +0.000 C 
ATOM     10  C   UNL     1      -5.887  -2.050   2.032  1.00  0.00    +0.000 C 
ATOM     11  C   UNL     1      -4.766  -1.282   1.313  1.00  0.00    +0.000 C 
ATOM     12  C   UNL     1      -3.319  -1.769   1.718  1.00  0.00    +0.000 C 
ATOM     13  C   UNL     1      -3.012  -1.404   3.192  1.00  0.00    +0.000 C 
ATOM     14  C   UNL     1      -2.246  -1.100   0.746  1.00  0.00    +0.000 C 
ATOM     15  C   UNL     1      -1.970   0.405   1.006  1.00  0.00    +0.000 C 
ATOM     16  C   UNL     1      -0.891   1.015   0.093  1.00  0.00    +0.000 C 
ATOM     17  C   UNL     1       0.435   0.236   0.158  1.00  0.00    +0.000 C 
ATOM     18  C   UNL     1       1.070   0.366   1.562  1.00  0.00    +0.000 C 
ATOM     19  C   UNL     1       1.482   0.564  -0.962  1.00  0.00    +0.000 C 
ENDROOT
BRANCH  19  20
ATOM     20  C   UNL     1       2.381   1.841  -0.836  1.00  0.00    +0.000 C 
ATOM     21  C   UNL     1       1.524   3.100  -0.650  1.00  0.00    +0.000 C 
BRANCH  20  22
ATOM     22  C   UNL     1       3.318   1.965  -2.076  1.00  0.00    +0.000 C 
BRANCH  22  23
ATOM     23  O   UNL     1       2.560   2.332  -3.235  1.00  0.00    +0.000 OA
ATOM     24  H   UNL     1       3.186   2.389  -3.977  1.00  0.00    +0.000 HD
ENDBRANCH  22  23
BRANCH  22  25
ATOM     25  C   UNL     1       4.552   2.885  -1.899  1.00  0.00    +0.000 C 
BRANCH  25  26
ATOM     26  C   UNL     1       4.299   4.370  -1.939  1.00  0.00    +0.000 C 
ATOM     27  C   UNL     1       4.712   5.311  -1.067  1.00  0.00    +0.000 C 
ATOM     28  C   UNL     1       4.357   6.760  -1.286  1.00  0.00    +0.000 C 
ATOM     29  C   UNL     1       5.527   5.061   0.171  1.00  0.00    +0.000 C 
ENDBRANCH  25  26
ENDBRANCH  22  25
ENDBRANCH  20  22
ENDBRANCH  19  20
BRANCH   9  30
ATOM     30  O   UNL     1      -6.813  -4.193   2.552  1.00  0.00    +0.000 OA
ATOM     31  H   UNL     1      -6.773  -5.143   2.350  1.00  0.00    +0.000 HD
ENDBRANCH   9  30
BRANCH  11  32
ATOM     32  O   UNL     1      -4.936   0.108   1.621  1.00  0.00    +0.000 OA
BRANCH  32  33
ATOM     33  C   UNL     1      -5.784   0.795   0.693  1.00  0.00    +0.000 C 
ATOM     34  O   UNL     1      -5.137   0.921  -0.572  1.00  0.00    +0.000 OA
ATOM     35  C   UNL     1      -6.061   1.382  -1.589  1.00  0.00    +0.000 C 
ATOM     36  C   UNL     1      -7.002   2.494  -1.069  1.00  0.00    +0.000 C 
ATOM     37  C   UNL     1      -6.389   3.208   0.149  1.00  0.00    +0.000 C 
ATOM     38  C   UNL     1      -6.035   2.208   1.269  1.00  0.00    +0.000 C 
BRANCH  38  39
ATOM     39  O   UNL     1      -7.088   2.160   2.247  1.00  0.00    +0.000 OA
ATOM     40  H   UNL     1      -6.803   1.508   2.915  1.00  0.00    +0.000 HD
ENDBRANCH  38  39
BRANCH  37  41
ATOM     41  O   UNL     1      -5.239   3.958  -0.265  1.00  0.00    +0.000 OA
ATOM     42  H   UNL     1      -4.462   3.367  -0.245  1.00  0.00    +0.000 HD
ENDBRANCH  37  41
BRANCH  36  43
ATOM     43  O   UNL     1      -8.245   1.877  -0.695  1.00  0.00    +0.000 OA
ATOM     44  H   UNL     1      -8.750   2.511  -0.152  1.00  0.00    +0.000 HD
ENDBRANCH  36  43
BRANCH  35  45
ATOM     45  C   UNL     1      -5.206   1.851  -2.770  1.00  0.00    +0.000 C 
BRANCH  45  46
ATOM     46  O   UNL     1      -4.373   0.777  -3.212  1.00  0.00    +0.000 OA
ATOM     47  H   UNL     1      -3.958   0.418  -2.404  1.00  0.00    +0.000 HD
ENDBRANCH  45  46
ENDBRANCH  35  45
ENDBRANCH  32  33
ENDBRANCH  11  32
BRANCH   1  48
ATOM     48  O   UNL     1       3.569  -0.689  -0.477  1.00  0.00    +0.000 OA
BRANCH  48  49
ATOM     49  C   UNL     1       4.508  -1.677  -0.937  1.00  0.00    +0.000 C 
ATOM     50  O   UNL     1       4.174  -2.936  -0.352  1.00  0.00    +0.000 OA
ATOM     51  C   UNL     1       5.230  -3.896  -0.232  1.00  0.00    +0.000 C 
ATOM     52  C   UNL     1       6.442  -3.627  -1.139  1.00  0.00    +0.000 C 
ATOM     53  C   UNL     1       6.989  -2.204  -0.969  1.00  0.00    +0.000 C 
ATOM     54  C   UNL     1       5.915  -1.201  -0.524  1.00  0.00    +0.000 C 
BRANCH  54  55
ATOM     55  O   UNL     1       6.244   0.085  -1.087  1.00  0.00    +0.000 OA
ATOM     56  H   UNL     1       7.074   0.354  -0.650  1.00  0.00    +0.000 HD
ENDBRANCH  54  55
BRANCH  53  57
ATOM     57  O   UNL     1       8.062  -2.153  -0.016  1.00  0.00    +0.000 OA
ATOM     58  H   UNL     1       8.727  -2.816  -0.273  1.00  0.00    +0.000 HD
ENDBRANCH  53  57
BRANCH  52  59
ATOM     59  O   UNL     1       6.019  -3.790  -2.506  1.00  0.00    +0.000 OA
ATOM     60  H   UNL     1       6.815  -3.908  -3.054  1.00  0.00    +0.000 HD
ENDBRANCH  52  59
BRANCH  51  61
ATOM     61  C   UNL     1       5.607  -4.031   1.252  1.00  0.00    +0.000 C 
BRANCH  61  62
ATOM     62  O   UNL     1       6.634  -4.999   1.435  1.00  0.00    +0.000 OA
ATOM     63  H   UNL     1       6.743  -5.111   2.396  1.00  0.00    +0.000 HD
ENDBRANCH  61  62
ENDBRANCH  51  61
ENDBRANCH  48  49
ENDBRANCH   1  48
TORSDOF 20
