REMARK  Name = /srv/my_project/app/compsite/backup/Dave/CORINA_stuff/newPDBs/SANC00128.pdb
AUTHORGENERATED BY OPEN BABEL 2.3.2
REMARK  2 active torsions:
REMARK  status: ('A' for Active; 'I' for Inactive)
REMARK    1  A    between atoms: C_1  and  N_2
REMARK    2  A    between atoms: C_11  and  N_12
REMARK                            x       y       z     vdW  Elec       q    Type
REMARK                         _______ _______ _______ _____ _____    ______ ____
ROOT
ATOM      1  C   UNL     1      -1.597   2.649   0.116  1.00  0.00    +0.000 C 
ATOM      2  N   UNL     1      -1.341   1.212   0.196  1.00  0.00    +0.000 N 
ATOM      3  C   UNL     1      -2.553   0.359  -0.028  1.00  0.00    +0.000 C 
ATOM      4  C   UNL     1      -2.411  -1.082   0.529  1.00  0.00    +0.000 C 
ATOM      5  C   UNL     1      -1.068  -1.631   0.209  1.00  0.00    +0.000 A 
ATOM      6  C   UNL     1      -0.557  -2.910   0.125  1.00  0.00    +0.000 A 
ATOM      7  N   UNL     1       0.794  -2.811  -0.156  1.00  0.00    +0.000 N 
ATOM      8  C   UNL     1       1.141  -1.487  -0.251  1.00  0.00    +0.000 A 
ATOM      9  C   UNL     1       2.429  -0.898  -0.486  1.00  0.00    +0.000 C 
ATOM     10  O   UNL     1       3.465  -1.554  -0.596  1.00  0.00    +0.000 OA
ATOM     11  C   UNL     1       2.412   0.676  -0.561  1.00  0.00    +0.000 C 
ATOM     12  C   UNL     1       1.081   1.341  -0.263  1.00  0.00    +0.000 C 
ATOM     13  C   UNL     1      -0.067   0.665  -0.043  1.00  0.00    +0.000 C 
ATOM     14  C   UNL     1       0.002  -0.761  -0.044  1.00  0.00    +0.000 A 
ATOM     15  H   UNL     1       1.439  -3.586  -0.256  1.00  0.00    +0.000 HD
ENDROOT
BRANCH  11  16
ATOM     16  N   UNL     1       3.446   1.220   0.343  1.00  0.00    +0.000 NA
ATOM     17  H   UNL     1       4.320   0.735   0.125  1.00  0.00    +0.000 HD
ATOM     18  H   UNL     1       3.217   0.927   1.294  1.00  0.00    +0.000 HD
ENDBRANCH  11  16
TORSDOF 1
