REMARK  Name = /srv/my_project/app/compsite/backup/Dave/CORINA_stuff/newPDBs/SANC00300.pdb
AUTHORGENERATED BY OPEN BABEL 2.3.2
REMARK  5 active torsions:
REMARK  status: ('A' for Active; 'I' for Inactive)
REMARK    1  A    between atoms: C_12  and  O_14
REMARK    2  A    between atoms: O_14  and  C_15
REMARK    3  A    between atoms: C_15  and  C_17
REMARK    4  A    between atoms: C_17  and  C_19
REMARK    5  A    between atoms: C_27  and  O_28
REMARK                            x       y       z     vdW  Elec       q    Type
REMARK                         _______ _______ _______ _____ _____    ______ ____
ROOT
ATOM      1  C   UNL     1      -0.616   1.612  -0.872  1.00  0.00    +0.000 C 
ATOM      2  C   UNL     1      -1.861   0.989  -1.479  1.00  0.00    +0.000 C 
ATOM      3  C   UNL     1      -2.933   0.404  -0.887  1.00  0.00    +0.000 C 
ATOM      4  C   UNL     1      -3.753  -0.651  -1.660  1.00  0.00    +0.000 C 
ATOM      5  C   UNL     1      -3.567  -2.161  -1.222  1.00  0.00    +0.000 C 
ATOM      6  C   UNL     1      -2.146  -2.585  -0.844  1.00  0.00    +0.000 C 
ATOM      7  O   UNL     1      -1.310  -1.532  -1.093  1.00  0.00    +0.000 OA
ATOM      8  C   UNL     1      -1.260  -1.852   0.305  1.00  0.00    +0.000 C 
ATOM      9  C   UNL     1       0.235  -1.725   0.556  1.00  0.00    +0.000 C 
ATOM     10  C   UNL     1       0.846  -0.410  -0.078  1.00  0.00    +0.000 C 
ATOM     11  C   UNL     1       0.100   0.913   0.309  1.00  0.00    +0.000 C 
ATOM     12  C   UNL     1       0.789   2.108   0.893  1.00  0.00    +0.000 C 
ATOM     13  C   UNL     1       1.816   2.205   1.746  1.00  0.00    +0.000 C 
ATOM     14  C   UNL     1       0.043   3.320   0.456  1.00  0.00    +0.000 C 
ATOM     15  O   UNL     1       0.218   4.456   0.859  1.00  0.00    +0.000 OA
ATOM     16  O   UNL     1      -0.917   2.936  -0.429  1.00  0.00    +0.000 OA
ATOM     17  C   UNL     1      -2.175  -1.433   1.459  1.00  0.00    +0.000 C 
ATOM     18  O   UNL     1      -3.386  -0.764   1.149  1.00  0.00    +0.000 OA
ATOM     19  C   UNL     1      -3.281   0.523   0.565  1.00  0.00    +0.000 C 
ENDROOT
BRANCH  17  20
ATOM     20  O   UNL     1      -1.498  -0.752   2.503  1.00  0.00    +0.000 OA
ATOM     21  H   UNL     1      -2.084  -0.837   3.275  1.00  0.00    +0.000 HD
ENDBRANCH  17  20
BRANCH  10  22
ATOM     22  O   UNL     1       2.243  -0.406   0.294  1.00  0.00    +0.000 OA
BRANCH  22  23
ATOM     23  C   UNL     1       3.081   0.205  -0.584  1.00  0.00    +0.000 C 
ATOM     24  O   UNL     1       2.735   0.774  -1.609  1.00  0.00    +0.000 OA
BRANCH  23  25
ATOM     25  C   UNL     1       4.501   0.121  -0.136  1.00  0.00    +0.000 C 
ATOM     26  C   UNL     1       4.878  -0.567   0.955  1.00  0.00    +0.000 C 
ATOM     27  C   UNL     1       5.482   0.860  -0.996  1.00  0.00    +0.000 C 
ENDBRANCH  23  25
ENDBRANCH  22  23
ENDBRANCH  10  22
TORSDOF 4
