REMARK  Name = SANCDB_01096_minRM1.pdb
AUTHORGENERATED BY OPEN BABEL 2.3.2
REMARK  17 active torsions:
REMARK  status: ('A' for Active; 'I' for Inactive)
REMARK    1  A    between atoms: C_1  and  C_2
REMARK    2  A    between atoms: C_2  and  C_3
REMARK    3  A    between atoms: C_3  and  C_4
REMARK    4  A    between atoms: C_4  and  C_5
REMARK    5  A    between atoms: C_5  and  C_6
REMARK    6  A    between atoms: C_6  and  C_7
REMARK    7  A    between atoms: C_7  and  C_8
REMARK    8  A    between atoms: C_8  and  C_9
REMARK    9  A    between atoms: C_10  and  C_11
REMARK   10  A    between atoms: C_11  and  C_12
REMARK   11  A    between atoms: C_12  and  C_13
REMARK   12  A    between atoms: C_13  and  C_14
REMARK   13  A    between atoms: C_14  and  C_15
REMARK   14  A    between atoms: C_15  and  C_16
REMARK   15  A    between atoms: C_16  and  C_17
REMARK   16  A    between atoms: C_17  and  C_18
REMARK   17  A    between atoms: C_18  and  O_20
REMARK                            x       y       z     vdW  Elec       q    Type
REMARK                         _______ _______ _______ _____ _____    ______ ____
ROOT
ATOM      1  C   UNL     1      -1.670   0.191  -0.366  1.00  0.00    +0.000 C 
ENDROOT
BRANCH   1   3
ATOM      2  C   UNL     1       0.500  -0.443  -1.544  1.00  0.00    +0.000 C 
ATOM      3  C   UNL     1      -0.628   0.278  -1.447  1.00  0.00    +0.000 C 
BRANCH   2   4
ATOM      4  C   UNL     1       0.954  -1.544  -0.627  1.00  0.00    +0.000 C 
BRANCH   4   5
ATOM      5  C   UNL     1       2.017  -1.096   0.380  1.00  0.00    +0.000 C 
BRANCH   5   6
ATOM      6  C   UNL     1       3.339  -0.685  -0.276  1.00  0.00    +0.000 C 
BRANCH   6   7
ATOM      7  C   UNL     1       4.391  -0.327   0.777  1.00  0.00    +0.000 C 
BRANCH   7   8
ATOM      8  C   UNL     1       5.713   0.086   0.125  1.00  0.00    +0.000 C 
BRANCH   8   9
ATOM      9  C   UNL     1       6.763   0.439   1.180  1.00  0.00    +0.000 C 
BRANCH   9  11
ATOM     10  C   UNL     1       8.823  -0.080  -0.235  1.00  0.00    +0.000 C 
ATOM     11  C   UNL     1       8.072   0.960   0.582  1.00  0.00    +0.000 C 
ENDBRANCH   9  11
ENDBRANCH   8   9
ENDBRANCH   7   8
ENDBRANCH   6   7
ENDBRANCH   5   6
ENDBRANCH   4   5
ENDBRANCH   2   4
ENDBRANCH   1   3
BRANCH   1  12
ATOM     12  C   UNL     1      -2.958  -0.442  -0.893  1.00  0.00    +0.000 C 
BRANCH  12  13
ATOM     13  C   UNL     1      -4.025  -0.642   0.188  1.00  0.00    +0.000 C 
BRANCH  13  14
ATOM     14  C   UNL     1      -4.529   0.671   0.793  1.00  0.00    +0.000 C 
BRANCH  14  15
ATOM     15  C   UNL     1      -5.736   0.482   1.716  1.00  0.00    +0.000 C 
BRANCH  15  16
ATOM     16  C   UNL     1      -7.105   0.741   1.069  1.00  0.00    +0.000 C 
BRANCH  16  17
ATOM     17  C   UNL     1      -7.540  -0.290   0.029  1.00  0.00    +0.000 C 
BRANCH  17  18
ATOM     18  C   UNL     1      -7.069   0.025  -1.366  1.00  0.00    +0.000 C 
ATOM     19  O   UNL     1      -6.710   1.103  -1.805  1.00  0.00    +0.000 OA
BRANCH  18  20
ATOM     20  O   UNL     1      -7.115  -1.057  -2.168  1.00  0.00    +0.000 OA
ATOM     21  H   UNL     1      -6.805  -0.721  -3.036  1.00  0.00    +0.000 HD
ENDBRANCH  18  20
ENDBRANCH  17  18
ENDBRANCH  16  17
ENDBRANCH  15  16
ENDBRANCH  14  15
ENDBRANCH  13  14
ENDBRANCH  12  13
ENDBRANCH   1  12
TORSDOF 16
