REMARK  Name = SANCDB_00804_minRM1.pdb
AUTHORGENERATED BY OPEN BABEL 2.3.2
REMARK  3 active torsions:
REMARK  status: ('A' for Active; 'I' for Inactive)
REMARK    1  A    between atoms: C_1  and  C_2
REMARK    2  A    between atoms: C_2  and  C_3
REMARK    3  A    between atoms: C_3  and  C_4
REMARK                            x       y       z     vdW  Elec       q    Type
REMARK                         _______ _______ _______ _____ _____    ______ ____
ROOT
ATOM      1  C   UNL     1      -0.140   0.379   0.085  1.00  0.00    +0.000 C 
ATOM      2  N   UNL     1      -0.761   0.290   1.209  1.00  0.00    +0.000 NA
ATOM      3  C   UNL     1      -2.170  -0.097   1.253  1.00  0.00    +0.000 C 
ATOM      4  C   UNL     1      -2.912   0.166  -0.047  1.00  0.00    +0.000 C 
ATOM      5  C   UNL     1      -2.147  -0.466  -1.193  1.00  0.00    +0.000 C 
ATOM      6  C   UNL     1      -0.766   0.153  -1.276  1.00  0.00    +0.000 C 
ENDROOT
BRANCH   1   7
ATOM      7  C   UNL     1       1.329   0.759   0.114  1.00  0.00    +0.000 C 
BRANCH   7   9
ATOM      8  C   UNL     1       3.679  -0.139   0.186  1.00  0.00    +0.000 C 
ATOM      9  C   UNL     1       2.201  -0.492   0.142  1.00  0.00    +0.000 C 
ENDBRANCH   7   9
ENDBRANCH   1   7
TORSDOF 2
