MODEL 1
REMARK VINA RESULT:    -8.845      0.000      0.000
REMARK INTER + INTRA:          -8.845
REMARK INTER:                  -8.845
REMARK INTRA:                   0.000
REMARK UNBOUND:                 0.000
REMARK  Name = 
REMARK  3 active torsions:
REMARK  status: ('A' for Active; 'I' for Inactive)
REMARK    1  A    between atoms: C_12  and  C_13
REMARK    2  A    between atoms: C_17  and  C_18
REMARK    3  A    between atoms: C_17  and  C_19
REMARK                            x       y       z     vdW  Elec       q    Type
REMARK                         _______ _______ _______ _____ _____    ______ ____
ROOT
ATOM      1  C   UNL     1      -7.584  -8.955   9.648  1.00  0.00    +0.000 C 
ATOM      2  C   UNL     1      -7.119 -10.366  10.104  1.00  0.00    +0.000 C 
ATOM      3  C   UNL     1      -5.648 -10.616   9.896  1.00  0.00    +0.000 C 
ATOM      4  C   UNL     1      -4.806  -9.649   9.504  1.00  0.00    +0.000 C 
ATOM      5  C   UNL     1      -3.330  -9.721   9.421  1.00  0.00    +0.000 C 
ATOM      6  O   UNL     1      -2.889  -8.394   9.711  1.00  0.00    +0.000 OA
ATOM      7  C   UNL     1      -3.936  -7.516   9.624  1.00  0.00    +0.000 C 
ATOM      8  O   UNL     1      -3.808  -6.311   9.776  1.00  0.00    +0.000 OA
ATOM      9  C   UNL     1      -5.221  -8.233   9.260  1.00  0.00    +0.000 C 
ATOM     10  C   UNL     1      -6.525  -7.846  10.029  1.00  0.00    +0.000 C 
ATOM     11  C   UNL     1      -6.242  -7.760  11.549  1.00  0.00    +0.000 C 
ATOM     12  C   UNL     1      -7.017  -6.466   9.526  1.00  0.00    +0.000 C 
ATOM     13  C   UNL     1      -8.447  -6.140   9.945  1.00  0.00    +0.000 C 
ATOM     14  C   UNL     1      -9.424  -7.206   9.464  1.00  0.00    +0.000 C 
ATOM     15  C   UNL     1      -9.089  -8.634   9.961  1.00  0.00    +0.000 C 
ATOM     16  C   UNL     1      -9.998  -9.615   9.175  1.00  0.00    +0.000 C 
ATOM     17  C   UNL     1      -9.487  -8.776  11.443  1.00  0.00    +0.000 C 
ENDROOT
TORSDOF 0
ENDMDL
