MODEL 1
REMARK VINA RESULT:    -7.749      0.000      0.000
REMARK INTER + INTRA:         -14.672
REMARK INTER:                 -12.958
REMARK INTRA:                  -1.713
REMARK UNBOUND:                -1.713
REMARK  Name = 
REMARK  23 active torsions:
REMARK  status: ('A' for Active; 'I' for Inactive)
REMARK    1  A    between atoms: C_1  and  C_2
REMARK    2  A    between atoms: C_2  and  C_48
REMARK    3  A    between atoms: C_3  and  C_4
REMARK    4  A    between atoms: C_4  and  C_6
REMARK    5  A    between atoms: C_4  and  N_9
REMARK    6  A    between atoms: C_6  and  C_7
REMARK    7  A    between atoms: C_6  and  C_8
REMARK    8  A    between atoms: N_9  and  C_10
REMARK    9  A    between atoms: C_14  and  C_16
REMARK   10  A    between atoms: C_16  and  N_18
REMARK   11  A    between atoms: C_16  and  C_44
REMARK   12  A    between atoms: C_19  and  C_21
REMARK   13  A    between atoms: C_21  and  N_23
REMARK   14  A    between atoms: C_21  and  C_28
REMARK   15  A    between atoms: N_23  and  C_24
REMARK   16  A    between atoms: C_28  and  C_29
REMARK   17  A    between atoms: C_28  and  C_30
REMARK   18  A    between atoms: C_28  and  C_31
REMARK   19  A    between atoms: N_33  and  C_34
REMARK   20  A    between atoms: C_44  and  C_45
REMARK   21  A    between atoms: C_44  and  C_46
REMARK   22  A    between atoms: C_44  and  C_47
REMARK   23  A    between atoms: C_48  and  O_50
REMARK                            x       y       z     vdW  Elec       q    Type
REMARK                         _______ _______ _______ _____ _____    ______ ____
ROOT
ATOM      1  N   UNL     1      -3.167  -9.357  10.561  1.00  0.00    +0.000 N 
ATOM      2  C   UNL     1      -1.820  -9.264  10.282  1.00  0.00    +0.000 C 
ATOM      3  O   UNL     1      -1.353  -9.490   9.168  1.00  0.00    +0.000 OA
ATOM      4  H   UNL     1      -3.419  -9.460  11.533  1.00  0.00    +0.000 HD
ENDROOT
BRANCH   1   5
ATOM      5  C   UNL     1      -4.167  -9.854   9.602  1.00  0.00    +0.000 C 
BRANCH   5   8
ATOM      6  N   UNL     1      -6.237  -8.545  10.309  1.00  0.00    +0.000 N 
ATOM      7  C   UNL     1      -5.793  -7.577  11.313  1.00  0.00    +0.000 C 
ATOM      8  C   UNL     1      -5.238  -8.738   9.353  1.00  0.00    +0.000 C 
ATOM      9  O   UNL     1      -5.241  -8.110   8.287  1.00  0.00    +0.000 OA
BRANCH   6  10
ATOM     10  C   UNL     1      -7.618  -8.322   9.785  1.00  0.00    +0.000 C 
BRANCH  10  13
ATOM     11  C   UNL     1      -9.725  -6.470   8.294  1.00  0.00    +0.000 C 
ATOM     12  C   UNL     1      -8.932  -6.116   9.515  1.00  0.00    +0.000 C 
ATOM     13  C   UNL     1      -8.035  -6.905  10.144  1.00  0.00    +0.000 C 
BRANCH  12  14
ATOM     14  C   UNL     1      -9.141  -4.768  10.103  1.00  0.00    +0.000 C 
ATOM     15  O   UNL     1      -9.732  -3.833   9.591  1.00  0.00    +0.000 OA
BRANCH  14  16
ATOM     16  O   UNL     1      -8.591  -4.650  11.322  1.00  0.00    +0.000 OA
ATOM     17  H   UNL     1      -7.667  -4.944  11.187  1.00  0.00    +0.000 HD
ENDBRANCH  14  16
ENDBRANCH  12  14
ENDBRANCH  10  13
BRANCH  10  18
ATOM     18  C   UNL     1      -8.693  -9.309  10.377  1.00  0.00    +0.000 C 
ATOM     19  C   UNL     1      -9.355  -8.745  11.652  1.00  0.00    +0.000 C 
ATOM     20  C   UNL     1      -9.829  -9.658   9.406  1.00  0.00    +0.000 C 
ENDBRANCH  10  18
ENDBRANCH   6  10
ENDBRANCH   5   8
BRANCH   5  21
ATOM     21  C   UNL     1      -4.446 -11.397   9.653  1.00  0.00    +0.000 C 
ATOM     22  C   UNL     1      -5.835 -11.843   9.180  1.00  0.00    +0.000 C 
ATOM     23  C   UNL     1      -3.384 -12.185   8.856  1.00  0.00    +0.000 C 
ATOM     24  C   UNL     1      -4.312 -11.862  11.131  1.00  0.00    +0.000 C 
ENDBRANCH   5  21
ENDBRANCH   1   5
BRANCH   2  25
ATOM     25  C   UNL     1      -0.902  -8.869  11.476  1.00  0.00    +0.000 C 
BRANCH  25  26
ATOM     26  N   UNL     1       0.357  -9.678  11.435  1.00  0.00    +0.000 NA
ATOM     27  C   UNL     1       0.150 -11.038  11.918  1.00  0.00    +0.000 C 
ATOM     28  H   UNL     1       0.737  -9.700  10.494  1.00  0.00    +0.000 HD
ENDBRANCH  25  26
BRANCH  25  29
ATOM     29  C   UNL     1      -0.664  -7.298  11.602  1.00  0.00    +0.000 C 
ATOM     30  C   UNL     1       0.781  -6.994  12.064  1.00  0.00    +0.000 C 
ATOM     31  C   UNL     1      -0.883  -6.664  10.203  1.00  0.00    +0.000 C 
BRANCH  29  32
ATOM     32  C   UNL     1      -1.666  -6.640  12.593  1.00  0.00    +0.000 A 
ATOM     33  C   UNL     1      -2.670  -7.278  13.303  1.00  0.00    +0.000 A 
ATOM     34  N   UNL     1      -3.338  -6.367  14.070  1.00  0.00    +0.000 N 
ATOM     35  C   UNL     1      -4.439  -6.685  14.951  1.00  0.00    +0.000 C 
ATOM     36  C   UNL     1      -2.815  -5.110  13.882  1.00  0.00    +0.000 A 
ATOM     37  C   UNL     1      -3.179  -3.876  14.445  1.00  0.00    +0.000 A 
ATOM     38  C   UNL     1      -2.466  -2.737  14.067  1.00  0.00    +0.000 A 
ATOM     39  C   UNL     1      -1.424  -2.827  13.154  1.00  0.00    +0.000 A 
ATOM     40  C   UNL     1      -1.070  -4.063  12.599  1.00  0.00    +0.000 A 
ATOM     41  C   UNL     1      -1.767  -5.241  12.961  1.00  0.00    +0.000 A 
ENDBRANCH  29  32
ENDBRANCH  25  29
ENDBRANCH   2  25
TORSDOF 12
ENDMDL
