MODEL 1
REMARK VINA RESULT:   -10.045      0.000      0.000
REMARK INTER + INTRA:         -10.338
REMARK INTER:                 -10.338
REMARK INTRA:                   0.000
REMARK UNBOUND:                 0.000
REMARK  Name = 
REMARK  1 active torsions:
REMARK  status: ('A' for Active; 'I' for Inactive)
REMARK    1  A    between atoms: C_8  and  O_9
REMARK                            x       y       z     vdW  Elec       q    Type
REMARK                         _______ _______ _______ _____ _____    ______ ____
ROOT
ATOM      1  O   UNL     1      -7.186  -6.139   9.250  1.00  0.00    +0.000 OA
ATOM      2  C   UNL     1      -6.753  -6.395  10.372  1.00  0.00    +0.000 C 
ATOM      3  C   UNL     1      -7.676  -6.762  11.519  1.00  0.00    +0.000 C 
ATOM      4  C   UNL     1      -8.992  -7.406  11.043  1.00  0.00    +0.000 C 
ATOM      5  C   UNL     1      -8.890  -8.761  10.369  1.00  0.00    +0.000 A 
ATOM      6  C   UNL     1      -9.846  -9.136   9.412  1.00  0.00    +0.000 A 
ATOM      7  C   UNL     1      -9.764 -10.369   8.752  1.00  0.00    +0.000 A 
ATOM      8  C   UNL     1      -8.706 -11.235   9.021  1.00  0.00    +0.000 A 
ATOM      9  C   UNL     1      -7.744 -10.882   9.963  1.00  0.00    +0.000 A 
ATOM     10  C   UNL     1      -7.880  -9.677  10.678  1.00  0.00    +0.000 A 
ATOM     11  O   UNL     1      -6.644 -11.713  10.147  1.00  0.00    +0.000 OA
ATOM     12  C   UNL     1      -5.448 -11.031  10.266  1.00  0.00    +0.000 A 
ATOM     13  C   UNL     1      -5.013 -10.188   9.239  1.00  0.00    +0.000 A 
ATOM     14  C   UNL     1      -4.023  -9.250   9.506  1.00  0.00    +0.000 A 
ATOM     15  C   UNL     1      -3.454  -9.180  10.783  1.00  0.00    +0.000 A 
ATOM     16  C   UNL     1      -2.698  -7.982  11.147  1.00  0.00    +0.000 C 
ATOM     17  C   UNL     1      -3.326  -6.868  11.571  1.00  0.00    +0.000 C 
ATOM     18  C   UNL     1      -4.805  -6.730  11.830  1.00  0.00    +0.000 C 
ATOM     19  O   UNL     1      -5.432  -6.234  10.637  1.00  0.00    +0.000 OA
ATOM     20  C   UNL     1      -3.783 -10.138  11.753  1.00  0.00    +0.000 A 
ATOM     21  C   UNL     1      -4.782 -11.075  11.491  1.00  0.00    +0.000 A 
ENDROOT
BRANCH   8  22
ATOM     22  O   UNL     1      -8.588 -12.418   8.346  1.00  0.00    +0.000 OA
ATOM     23  H   UNL     1      -8.272 -13.099   8.960  1.00  0.00    +0.000 HD
ENDBRANCH   8  22
TORSDOF 1
ENDMDL
