MODEL 1
REMARK VINA RESULT:    -6.893      0.000      0.000
REMARK INTER + INTRA:         -13.124
REMARK INTER:                 -11.325
REMARK INTRA:                  -1.799
REMARK UNBOUND:                -1.799
REMARK  Name = 
REMARK  14 active torsions:
REMARK  status: ('A' for Active; 'I' for Inactive)
REMARK    1  A    between atoms: C_1  and  C_2
REMARK    2  A    between atoms: C_2  and  C_3
REMARK    3  A    between atoms: C_3  and  C_4
REMARK    4  A    between atoms: C_5  and  C_6
REMARK    5  A    between atoms: C_7  and  C_8
REMARK    6  A    between atoms: C_8  and  C_9
REMARK    7  A    between atoms: C_9  and  C_10
REMARK    8  A    between atoms: C_10  and  C_11
REMARK    9  A    between atoms: C_11  and  O_12
REMARK   10  A    between atoms: O_12  and  C_13
REMARK   11  A    between atoms: C_19  and  C_21
REMARK   12  A    between atoms: C_21  and  C_22
REMARK   13  A    between atoms: C_22  and  O_24
REMARK   14  A    between atoms: O_24  and  C_25
REMARK                            x       y       z     vdW  Elec       q    Type
REMARK                         _______ _______ _______ _____ _____    ______ ____
ROOT
ATOM      1  C   UNL     1      -2.718  -9.859  10.034  1.00  0.00    +0.000 C 
ATOM      2  C   UNL     1      -3.677  -9.210   9.062  1.00  0.00    +0.000 C 
ATOM      3  C   UNL     1      -4.586  -8.301   9.452  1.00  0.00    +0.000 C 
ATOM      4  C   UNL     1      -4.752  -7.947  10.904  1.00  0.00    +0.000 C 
ATOM      5  O   UNL     1      -4.075  -8.912  11.730  1.00  0.00    +0.000 OA
ATOM      6  O   UNL     1      -2.698  -9.040  11.231  1.00  0.00    +0.000 OA
ENDROOT
BRANCH   1   7
ATOM      7  O   UNL     1      -1.445  -9.819   9.376  1.00  0.00    +0.000 OA
ATOM      8  C   UNL     1      -0.591  -8.772   9.811  1.00  0.00    +0.000 C 
ENDBRANCH   1   7
BRANCH   1   9
ATOM      9  C   UNL     1      -3.111 -11.312  10.392  1.00  0.00    +0.000 C 
BRANCH   9  10
ATOM     10  C   UNL     1      -3.689 -12.181   9.261  1.00  0.00    +0.000 C 
BRANCH  10  11
ATOM     11  C   UNL     1      -5.063 -12.813   9.498  1.00  0.00    +0.000 C 
BRANCH  11  13
ATOM     12  C   UNL     1      -6.700 -11.071  10.259  1.00  0.00    +0.000 C 
ATOM     13  C   UNL     1      -6.201 -11.853   9.290  1.00  0.00    +0.000 C 
BRANCH  12  15
ATOM     14  C   UNL     1      -8.164  -9.233  10.944  1.00  0.00    +0.000 C 
ATOM     15  C   UNL     1      -7.788 -10.148  10.037  1.00  0.00    +0.000 C 
BRANCH  14  16
ATOM     16  C   UNL     1      -9.290  -8.262  10.733  1.00  0.00    +0.000 C 
BRANCH  16  18
ATOM     17  C   UNL     1      -9.461  -6.288   9.130  1.00  0.00    +0.000 C 
ATOM     18  C   UNL     1      -9.416  -7.802   9.279  1.00  0.00    +0.000 C 
ENDBRANCH  16  18
ENDBRANCH  14  16
ENDBRANCH  12  15
ENDBRANCH  11  13
ENDBRANCH  10  11
ENDBRANCH   9  10
ENDBRANCH   1   9
BRANCH   4  19
ATOM     19  C   UNL     1      -4.408  -6.520  11.309  1.00  0.00    +0.000 C 
BRANCH  19  20
ATOM     20  C   UNL     1      -5.523  -5.814  12.033  1.00  0.00    +0.000 C 
ATOM     21  O   UNL     1      -6.711  -6.007  11.810  1.00  0.00    +0.000 OA
BRANCH  20  22
ATOM     22  O   UNL     1      -5.030  -4.975  12.985  1.00  0.00    +0.000 OA
ATOM     23  C   UNL     1      -4.191  -5.617  13.944  1.00  0.00    +0.000 C 
ENDBRANCH  20  22
ENDBRANCH  19  20
ENDBRANCH   4  19
TORSDOF 11
ENDMDL
