MODEL 1
REMARK VINA RESULT:    -8.824      0.000      0.000
REMARK INTER + INTRA:         -11.286
REMARK INTER:                 -10.888
REMARK INTRA:                  -0.399
REMARK UNBOUND:                -0.399
REMARK  Name = SANCDB01127.pdb
REMARK  7 active torsions:
REMARK  status: ('A' for Active; 'I' for Inactive)
REMARK    1  A    between atoms: C_1  and  O_2
REMARK    2  A    between atoms: O_2  and  C_3
REMARK    3  A    between atoms: C_4  and  O_23
REMARK    4  A    between atoms: C_5  and  O_22
REMARK    5  A    between atoms: C_10  and  C_14
REMARK    6  A    between atoms: C_16  and  O_21
REMARK    7  A    between atoms: C_17  and  O_20
REMARK                            x       y       z     vdW  Elec       q    Type
REMARK                         _______ _______ _______ _____ _____    ______ ____
ROOT
ATOM      1  C   UNL     1      -3.096 -12.410   9.593  1.00  0.00    +0.000 A 
ATOM      2  C   UNL     1      -3.871 -13.538   9.281  1.00  0.00    +0.000 A 
ATOM      3  C   UNL     1      -5.263 -13.463   9.197  1.00  0.00    +0.000 A 
ATOM      4  C   UNL     1      -5.889 -12.237   9.428  1.00  0.00    +0.000 A 
ATOM      5  C   UNL     1      -5.128 -11.109   9.737  1.00  0.00    +0.000 A 
ATOM      6  C   UNL     1      -3.733 -11.190   9.820  1.00  0.00    +0.000 A 
ATOM      7  O   UNL     1      -5.685  -9.875   9.973  1.00  0.00    +0.000 OA
ATOM      8  C   UNL     1      -7.063  -9.744   9.896  1.00  0.00    +0.000 A 
ATOM      9  C   UNL     1      -7.901 -10.752   9.619  1.00  0.00    +0.000 A 
ATOM     10  C   UNL     1      -7.348 -12.089   9.357  1.00  0.00    +0.000 A 
ATOM     11  O   UNL     1      -8.075 -13.037   9.088  1.00  0.00    +0.000 OA
ENDROOT
BRANCH   8  12
ATOM     12  C   UNL     1      -7.555  -8.381  10.176  1.00  0.00    +0.000 A 
ATOM     13  C   UNL     1      -6.751  -7.483  10.895  1.00  0.00    +0.000 A 
ATOM     14  C   UNL     1      -7.207  -6.197  11.149  1.00  0.00    +0.000 A 
ATOM     15  C   UNL     1      -8.453  -5.776  10.694  1.00  0.00    +0.000 A 
ATOM     16  C   UNL     1      -9.263  -6.643   9.972  1.00  0.00    +0.000 A 
ATOM     17  C   UNL     1      -8.810  -7.942   9.712  1.00  0.00    +0.000 A 
BRANCH  15  18
ATOM     18  O   UNL     1      -8.837  -4.496  10.980  1.00  0.00    +0.000 OA
ATOM     19  H   UNL     1      -9.300  -4.136  10.205  1.00  0.00    +0.000 HD
ENDBRANCH  15  18
BRANCH  14  20
ATOM     20  O   UNL     1      -6.415  -5.337  11.855  1.00  0.00    +0.000 OA
ATOM     21  H   UNL     1      -5.849  -5.918  12.403  1.00  0.00    +0.000 HD
ENDBRANCH  14  20
ENDBRANCH   8  12
BRANCH   1  23
ATOM     22  C   UNL     1      -0.965 -11.695  10.379  1.00  0.00    +0.000 C 
ATOM     23  O   UNL     1      -1.743 -12.633   9.641  1.00  0.00    +0.000 OA
ENDBRANCH   1  23
BRANCH   3  24
ATOM     24  O   UNL     1      -5.966 -14.599   8.890  1.00  0.00    +0.000 OA
ATOM     25  H   UNL     1      -5.412 -15.165   8.310  1.00  0.00    +0.000 HD
ENDBRANCH   3  24
BRANCH   2  26
ATOM     26  O   UNL     1      -3.240 -14.737   9.057  1.00  0.00    +0.000 OA
ATOM     27  H   UNL     1      -3.094 -15.127   9.937  1.00  0.00    +0.000 HD
ENDBRANCH   2  26
TORSDOF 6
ENDMDL
