MODEL 1
REMARK VINA RESULT:    86.398      0.000      0.000
REMARK INTER + INTRA:         106.515
REMARK INTER:                 106.601
REMARK INTRA:                  -0.086
REMARK UNBOUND:                -0.086
REMARK  Name = CC%14C(O)C%13(OCC%10%12C(=O)C=C9C8(C)Cc7nc6CC5CCC4C3=CC2OC1(OC(C)(CO)CC1O)C(...
REMARK  16 active torsions:
REMARK  status: ('A' for Active; 'I' for Inactive)
REMARK    1  A    between atoms: C_1  and  C_48
REMARK    2  A    between atoms: C_2  and  C_49
REMARK    3  A    between atoms: C_3  and  C_50
REMARK    4  A    between atoms: C_4  and  C_59
REMARK    5  A    between atoms: C_5  and  C_59
REMARK    6  A    between atoms: C_6  and  C_60
REMARK    7  A    between atoms: C_7  and  C_61
REMARK    8  A    between atoms: C_8  and  C_62
REMARK    9  A    between atoms: C_9  and  C_64
REMARK   10  A    between atoms: O_11  and  C_19
REMARK   11  A    between atoms: O_12  and  C_46
REMARK   12  A    between atoms: O_13  and  C_47
REMARK   13  A    between atoms: O_14  and  C_54
REMARK   14  A    between atoms: O_15  and  C_63
REMARK   15  A    between atoms: O_16  and  C_65
REMARK   16  A    between atoms: C_19  and  C_60
REMARK                            x       y       z     vdW  Elec       q    Type
REMARK                         _______ _______ _______ _____ _____    ______ ____
ROOT
ATOM      1  C   UNL     1       0.594  -3.406  12.468  1.00  0.00    +0.000 C 
ATOM      2  C   UNL     1      -0.395  -6.694  11.332  1.00  0.00    +0.000 C 
ATOM      3  C   UNL     1     -19.154 -15.718   3.445  1.00  0.00    +0.000 C 
ATOM      4  C   UNL     1      -1.445  -3.622  14.537  1.00  0.00    +0.000 C 
ATOM      5  C   UNL     1      -3.143  -2.564  13.064  1.00  0.00    +0.000 C 
ATOM      6  C   UNL     1     -16.883 -20.764   3.022  1.00  0.00    +0.000 C 
ATOM      7  C   UNL     1      -8.970  -7.227   8.858  1.00  0.00    +0.000 C 
ATOM      8  C   UNL     1     -13.572 -10.454   3.890  1.00  0.00    +0.000 C 
ATOM      9  C   UNL     1     -17.230 -12.803   2.008  1.00  0.00    +0.000 C 
ATOM     10  O   UNL     1      -3.674  -6.784   8.317  1.00  0.00    +0.000 OA
ATOM     11  C   UNL     1      -5.858  -7.466   8.704  1.00  0.00    +0.000 C 
ATOM     12  C   UNL     1     -14.849 -15.392   1.350  1.00  0.00    +0.000 C 
ATOM     13  C   UNL     1     -11.781 -12.131   1.910  1.00  0.00    +0.000 C 
ATOM     14  C   UNL     1      -8.846  -9.133  11.347  1.00  0.00    +0.000 C 
ATOM     15  C   UNL     1     -12.753 -13.239   1.516  1.00  0.00    +0.000 C 
ATOM     16  C   UNL     1      -7.594  -8.386  11.812  1.00  0.00    +0.000 C 
ATOM     17  C   UNL     1      -4.535  -5.446  11.033  1.00  0.00    +0.000 C 
ATOM     18  C   UNL     1     -10.205  -9.985   9.405  1.00  0.00    +0.000 C 
ATOM     19  C   UNL     1     -10.559 -11.011   3.812  1.00  0.00    +0.000 C 
ATOM     20  C   UNL     1      -8.027  -9.175   7.535  1.00  0.00    +0.000 C 
ATOM     21  C   UNL     1     -12.669 -11.953   5.706  1.00  0.00    +0.000 C 
ATOM     22  C   UNL     1     -15.326 -12.962   4.470  1.00  0.00    +0.000 C 
ATOM     23  C   UNL     1      -2.875  -7.937  12.427  1.00  0.00    +0.000 C 
ATOM     24  C   UNL     1     -18.262 -19.123   4.380  1.00  0.00    +0.000 C 
ATOM     25  N   UNL     1      -9.355 -10.118   5.727  1.00  0.00    +0.000 NA
ATOM     26  N   UNL     1     -11.375 -10.944   7.504  1.00  0.00    +0.000 NA
ATOM     27  O   UNL     1      -3.492  -4.574  10.606  1.00  0.00    +0.000 OA
ATOM     28  O   UNL     1     -15.899 -17.189   2.529  1.00  0.00    +0.000 OA
ATOM     29  O   UNL     1      -5.243  -7.527  12.898  1.00  0.00    +0.000 OA
ATOM     30  O   UNL     1      -2.309  -4.798  12.641  1.00  0.00    +0.000 OA
ATOM     31  O   UNL     1     -17.660 -18.660   2.140  1.00  0.00    +0.000 OA
ATOM     32  C   UNL     1      -4.517  -7.060   9.169  1.00  0.00    +0.000 C 
ATOM     33  C   UNL     1     -15.094 -14.189   1.891  1.00  0.00    +0.000 C 
ATOM     34  C   UNL     1      -6.725  -8.137   9.485  1.00  0.00    +0.000 C 
ATOM     35  C   UNL     1     -10.268 -10.292   7.938  1.00  0.00    +0.000 A 
ATOM     36  C   UNL     1     -10.455 -10.784   5.293  1.00  0.00    +0.000 A 
ATOM     37  C   UNL     1      -9.274  -9.873   7.059  1.00  0.00    +0.000 A 
ATOM     38  C   UNL     1     -11.460 -11.183   6.170  1.00  0.00    +0.000 A 
ATOM     39  C   UNL     1     -16.316 -14.059   4.004  1.00  0.00    +0.000 C 
ATOM     40  C   UNL     1     -17.239 -18.015   4.399  1.00  0.00    +0.000 C 
ATOM     41  C   UNL     1      -0.838  -3.023  12.088  1.00  0.00    +0.000 C 
ATOM     42  C   UNL     1      -1.747  -6.263  10.757  1.00  0.00    +0.000 C 
ATOM     43  C   UNL     1     -18.143 -16.327   2.489  1.00  0.00    +0.000 C 
ATOM     44  C   UNL     1     -16.027 -16.298   1.427  1.00  0.00    +0.000 C 
ATOM     45  C   UNL     1      -8.801  -9.576   9.880  1.00  0.00    +0.000 C 
ATOM     46  C   UNL     1     -11.611 -12.063   3.434  1.00  0.00    +0.000 C 
ATOM     47  C   UNL     1      -1.253  -3.709  10.786  1.00  0.00    +0.000 C 
ATOM     48  C   UNL     1      -4.260  -8.483  12.540  1.00  0.00    +0.000 C 
ATOM     49  C   UNL     1     -14.119 -13.081   2.203  1.00  0.00    +0.000 C 
ATOM     50  C   UNL     1      -2.815  -7.359  10.995  1.00  0.00    +0.000 C 
ATOM     51  C   UNL     1     -13.952 -13.003   3.748  1.00  0.00    +0.000 C 
ATOM     52  C   UNL     1      -1.914  -3.489  13.086  1.00  0.00    +0.000 C 
ATOM     53  C   UNL     1     -18.032 -19.751   3.013  1.00  0.00    +0.000 C 
ATOM     54  C   UNL     1      -8.130  -8.527   8.949  1.00  0.00    +0.000 C 
ATOM     55  C   UNL     1     -12.965 -11.852   4.182  1.00  0.00    +0.000 C 
ATOM     56  C   UNL     1      -6.356  -8.556  10.903  1.00  0.00    +0.000 C 
ATOM     57  C   UNL     1     -16.515 -14.100   2.461  1.00  0.00    +0.000 C 
ATOM     58  C   UNL     1     -17.191 -15.362   1.775  1.00  0.00    +0.000 C 
ATOM     59  C   UNL     1      -4.276  -6.913  10.664  1.00  0.00    +0.000 C 
ATOM     60  C   UNL     1     -17.250 -17.512   2.940  1.00  0.00    +0.000 C 
ATOM     61  C   UNL     1      -2.215  -4.861  11.213  1.00  0.00    +0.000 C 
ATOM     62  C   UNL     1      -5.141  -7.851  11.491  1.00  0.00    +0.000 C 
ENDROOT
BRANCH  39  63
ATOM     63  O   UNL     1     -15.866 -15.299   4.548  1.00  0.00    +0.000 OA
ATOM     64  H   UNL     1     -14.896 -15.244   4.671  1.00  0.00    +0.000 HD
ENDBRANCH  39  63
BRANCH  40  65
ATOM     65  O   UNL     1     -17.535 -17.084   5.423  1.00  0.00    +0.000 OA
ATOM     66  H   UNL     1     -17.109 -17.433   6.238  1.00  0.00    +0.000 HD
ENDBRANCH  40  65
BRANCH  47  67
ATOM     67  O   UNL     1      -1.910  -2.734   9.957  1.00  0.00    +0.000 OA
ATOM     68  H   UNL     1      -2.753  -2.534  10.418  1.00  0.00    +0.000 HD
ENDBRANCH  47  67
BRANCH  56  69
ATOM     69  O   UNL     1      -6.028  -9.945  10.805  1.00  0.00    +0.000 OA
ATOM     70  H   UNL     1      -6.771 -10.388  10.360  1.00  0.00    +0.000 HD
ENDBRANCH  56  69
BRANCH  58  71
ATOM     71  O   UNL     1     -17.844 -14.959   0.546  1.00  0.00    +0.000 OA
ATOM     72  H   UNL     1     -17.238 -15.161  -0.192  1.00  0.00    +0.000 HD
ENDBRANCH  58  71
BRANCH  53  73
ATOM     73  C   UNL     1     -19.296 -20.415   2.444  1.00  0.00    +0.000 C 
BRANCH  73  74
ATOM     74  O   UNL     1     -19.465 -20.094   1.064  1.00  0.00    +0.000 OA
ATOM     75  H   UNL     1     -20.048 -19.313   1.046  1.00  0.00    +0.000 HD
ENDBRANCH  73  74
ENDBRANCH  53  73
TORSDOF 7
ENDMDL
