MODEL 1
REMARK VINA RESULT:    -8.851      0.000      0.000
REMARK INTER + INTRA:         -13.976
REMARK INTER:                 -12.732
REMARK INTRA:                  -1.244
REMARK UNBOUND:                -1.244
REMARK  Name = 
REMARK  13 active torsions:
REMARK  status: ('A' for Active; 'I' for Inactive)
REMARK    1  A    between atoms: C_1  and  C_2
REMARK    2  A    between atoms: C_2  and  C_19
REMARK    3  A    between atoms: C_3  and  C_4
REMARK    4  A    between atoms: C_4  and  C_5
REMARK    5  A    between atoms: C_5  and  C_6
REMARK    6  A    between atoms: C_6  and  C_7
REMARK    7  A    between atoms: C_12  and  O_13
REMARK    8  A    between atoms: C_14  and  C_15
REMARK    9  A    between atoms: C_19  and  C_20
REMARK   10  A    between atoms: C_20  and  C_22
REMARK   11  A    between atoms: C_22  and  C_23
REMARK   12  A    between atoms: C_23  and  C_24
REMARK   13  A    between atoms: C_23  and  C_25
REMARK                            x       y       z     vdW  Elec       q    Type
REMARK                         _______ _______ _______ _____ _____    ______ ____
ROOT
ATOM      1  C   UNL     1      -4.479  -9.242  10.364  1.00  0.00    +0.000 C 
ATOM      2  C   UNL     1      -3.946  -8.648  11.677  1.00  0.00    +0.000 C 
ATOM      3  C   UNL     1      -5.933  -9.621  10.558  1.00  0.00    +0.000 C 
ATOM      4  C   UNL     1      -6.428 -10.818  10.228  1.00  0.00    +0.000 C 
ATOM      5  C   UNL     1      -5.515 -11.795   9.658  1.00  0.00    +0.000 A 
ATOM      6  C   UNL     1      -5.981 -13.019   9.175  1.00  0.00    +0.000 A 
ATOM      7  C   UNL     1      -5.085 -13.954   8.652  1.00  0.00    +0.000 A 
ATOM      8  C   UNL     1      -3.711 -13.693   8.606  1.00  0.00    +0.000 A 
ATOM      9  C   UNL     1      -2.722 -14.678   8.055  1.00  0.00    +0.000 C 
ATOM     10  C   UNL     1      -3.254 -12.461   9.098  1.00  0.00    +0.000 A 
ATOM     11  C   UNL     1      -4.149 -11.518   9.611  1.00  0.00    +0.000 A 
ATOM     12  O   UNL     1      -3.598 -10.359  10.082  1.00  0.00    +0.000 OA
ENDROOT
BRANCH   7  13
ATOM     13  O   UNL     1      -5.634 -15.121   8.200  1.00  0.00    +0.000 OA
ATOM     14  H   UNL     1      -5.017 -15.550   7.588  1.00  0.00    +0.000 HD
ENDBRANCH   7  13
BRANCH   1  15
ATOM     15  C   UNL     1      -4.300  -8.252   9.186  1.00  0.00    +0.000 C 
BRANCH  15  16
ATOM     16  C   UNL     1      -4.477  -6.771   9.530  1.00  0.00    +0.000 C 
BRANCH  16  19
ATOM     17  C   UNL     1      -5.977  -5.816  12.070  1.00  0.00    +0.000 C 
ATOM     18  C   UNL     1      -6.619  -6.016  10.720  1.00  0.00    +0.000 C 
ATOM     19  C   UNL     1      -5.935  -6.406   9.624  1.00  0.00    +0.000 C 
BRANCH  18  20
ATOM     20  C   UNL     1      -8.106  -5.707  10.724  1.00  0.00    +0.000 C 
BRANCH  20  21
ATOM     21  C   UNL     1      -8.924  -6.178   9.522  1.00  0.00    +0.000 C 
ATOM     22  O   UNL     1      -9.687  -5.419   8.921  1.00  0.00    +0.000 OA
BRANCH  21  23
ATOM     23  C   UNL     1      -8.755  -7.617   9.068  1.00  0.00    +0.000 C 
BRANCH  23  24
ATOM     24  C   UNL     1      -9.768  -8.564   9.726  1.00  0.00    +0.000 C 
ATOM     25  C   UNL     1      -9.856  -9.899   8.983  1.00  0.00    +0.000 C 
ATOM     26  C   UNL     1      -9.384  -8.821  11.186  1.00  0.00    +0.000 C 
ENDBRANCH  23  24
ENDBRANCH  21  23
ENDBRANCH  20  21
ENDBRANCH  18  20
ENDBRANCH  16  19
ENDBRANCH  15  16
ENDBRANCH   1  15
TORSDOF 8
ENDMDL
