MODEL 1
REMARK VINA RESULT:    -8.494      0.000      0.000
REMARK INTER + INTRA:          -8.494
REMARK INTER:                  -8.494
REMARK INTRA:                   0.000
REMARK UNBOUND:                 0.000
REMARK  Name = SANCDB01130.pdb
REMARK  0 active torsions:
REMARK  status: ('A' for Active; 'I' for Inactive)
REMARK                            x       y       z     vdW  Elec       q    Type
REMARK                         _______ _______ _______ _____ _____    ______ ____
ROOT
ATOM      1  C   UNL     1      -8.859  -6.324  10.820  1.00  0.00    +0.000 C 
ATOM      2  C   UNL     1      -7.456  -6.110  11.369  1.00  0.00    +0.000 C 
ATOM      3  C   UNL     1      -6.533  -6.527  10.212  1.00  0.00    +0.000 C 
ATOM      4  C   UNL     1      -5.056  -6.639  10.528  1.00  0.00    +0.000 C 
ATOM      5  C   UNL     1      -4.484  -6.147  11.641  1.00  0.00    +0.000 C 
ATOM      6  C   UNL     1      -4.210  -7.333   9.485  1.00  0.00    +0.000 C 
ATOM      7  C   UNL     1      -4.471  -8.841   9.340  1.00  0.00    +0.000 C 
ATOM      8  C   UNL     1      -5.326  -9.450  10.460  1.00  0.00    +0.000 C 
ATOM      9  C   UNL     1      -6.821  -9.129  10.364  1.00  0.00    +0.000 C 
ATOM     10  O   UNL     1      -7.393 -10.224   9.608  1.00  0.00    +0.000 OA
ATOM     11  C   UNL     1      -6.625 -11.338   9.714  1.00  0.00    +0.000 C 
ATOM     12  O   UNL     1      -6.918 -12.450   9.321  1.00  0.00    +0.000 OA
ATOM     13  C   UNL     1      -5.363 -10.937  10.366  1.00  0.00    +0.000 C 
ATOM     14  C   UNL     1      -4.462 -11.821  10.809  1.00  0.00    +0.000 C 
ATOM     15  C   UNL     1      -7.217  -7.805   9.666  1.00  0.00    +0.000 C 
ATOM     16  C   UNL     1      -8.691  -7.478   9.872  1.00  0.00    +0.000 C 
ATOM     17  C   UNL     1      -9.715  -8.092   9.264  1.00  0.00    +0.000 C 
ENDROOT
TORSDOF 0
ENDMDL
