MODEL 1
REMARK VINA RESULT:    -6.499      0.000      0.000
REMARK INTER + INTRA:          -9.673
REMARK INTER:                  -8.778
REMARK INTRA:                  -0.894
REMARK UNBOUND:                -0.894
REMARK  Name = 
REMARK  12 active torsions:
REMARK  status: ('A' for Active; 'I' for Inactive)
REMARK    1  A    between atoms: C_11  and  C_12
REMARK    2  A    between atoms: C_13  and  C_15
REMARK    3  A    between atoms: C_23  and  O_24
REMARK    4  A    between atoms: C_25  and  C_26
REMARK    5  A    between atoms: C_27  and  O_29
REMARK    6  A    between atoms: C_31  and  O_33
REMARK    7  A    between atoms: O_33  and  C_34
REMARK    8  A    between atoms: C_37  and  C_39
REMARK    9  A    between atoms: C_40  and  O_42
REMARK   10  A    between atoms: C_43  and  O_45
REMARK   11  A    between atoms: O_45  and  C_46
REMARK   12  A    between atoms: C_47  and  O_49
REMARK                            x       y       z     vdW  Elec       q    Type
REMARK                         _______ _______ _______ _____ _____    ______ ____
ROOT
ATOM      1  C   UNL     1      -5.354 -12.494   8.841  1.00  0.00    +0.000 C 
ATOM      2  C   UNL     1      -6.356 -12.184   9.979  1.00  0.00    +0.000 C 
ATOM      3  C   UNL     1      -6.020 -10.972  10.836  1.00  0.00    +0.000 C 
ATOM      4  C   UNL     1      -5.259  -9.914  10.041  1.00  0.00    +0.000 C 
ATOM      5  C   UNL     1      -3.907 -10.445   9.512  1.00  0.00    +0.000 C 
ATOM      6  C   UNL     1      -3.393  -9.444   8.448  1.00  0.00    +0.000 C 
ATOM      7  C   UNL     1      -3.868  -7.995   8.627  1.00  0.00    +0.000 C 
ATOM      8  C   UNL     1      -4.136  -7.543  10.078  1.00  0.00    +0.000 C 
ATOM      9  C   UNL     1      -4.800  -6.141  10.011  1.00  0.00    +0.000 C 
ATOM     10  C   UNL     1      -2.835  -7.533  10.958  1.00  0.00    +0.000 C 
ATOM     11  C   UNL     1      -3.408  -7.668  12.375  1.00  0.00    +0.000 C 
ATOM     12  C   UNL     1      -4.456  -8.762  12.231  1.00  0.00    +0.000 C 
ATOM     13  C   UNL     1      -5.074  -8.578  10.826  1.00  0.00    +0.000 C 
ATOM     14  C   UNL     1      -3.903 -11.982   9.093  1.00  0.00    +0.000 C 
ATOM     15  C   UNL     1      -3.051 -12.195   7.807  1.00  0.00    +0.000 C 
ATOM     16  C   UNL     1      -3.284 -12.850  10.243  1.00  0.00    +0.000 C 
ATOM     17  C   UNL     1      -3.330 -14.357   9.974  1.00  0.00    +0.000 C 
ATOM     18  C   UNL     1      -4.726 -14.869   9.614  1.00  0.00    +0.000 C 
ATOM     19  C   UNL     1      -5.393 -14.006   8.531  1.00  0.00    +0.000 C 
ENDROOT
BRANCH  10  20
ATOM     20  C   UNL     1      -1.799  -6.444  10.833  1.00  0.00    +0.000 C 
ATOM     21  C   UNL     1      -1.778  -5.212  11.341  1.00  0.00    +0.000 C 
ATOM     22  C   UNL     1      -0.573  -4.547  10.847  1.00  0.00    +0.000 C 
ATOM     23  O   UNL     1      -0.242  -3.411  11.129  1.00  0.00    +0.000 OA
ATOM     24  O   UNL     1       0.100  -5.397  10.031  1.00  0.00    +0.000 OA
ATOM     25  C   UNL     1      -0.609  -6.632   9.960  1.00  0.00    +0.000 C 
ENDBRANCH  10  20
BRANCH  13  26
ATOM     26  O   UNL     1      -6.398  -8.052  10.996  1.00  0.00    +0.000 OA
ATOM     27  H   UNL     1      -6.395  -7.422  11.736  1.00  0.00    +0.000 HD
ENDBRANCH  13  26
BRANCH  16  28
ATOM     28  O   UNL     1      -1.929 -12.466  10.497  1.00  0.00    +0.000 OA
ATOM     29  H   UNL     1      -1.865 -12.175  11.424  1.00  0.00    +0.000 HD
ENDBRANCH  16  28
BRANCH  18  30
ATOM     30  O   UNL     1      -4.558 -16.228   9.193  1.00  0.00    +0.000 OA
BRANCH  30  31
ATOM     31  C   UNL     1      -3.380 -16.866   9.705  1.00  0.00    +0.000 C 
ATOM     32  O   UNL     1      -3.696 -17.664  10.849  1.00  0.00    +0.000 OA
ATOM     33  C   UNL     1      -4.093 -19.015  10.599  1.00  0.00    +0.000 C 
ATOM     34  C   UNL     1      -5.496 -19.067   9.995  1.00  0.00    +0.000 C 
ATOM     35  C   UNL     1      -3.057 -19.803   9.758  1.00  0.00    +0.000 C 
ATOM     36  C   UNL     1      -2.000 -18.890   9.108  1.00  0.00    +0.000 C 
ATOM     37  C   UNL     1      -2.735 -17.668   8.550  1.00  0.00    +0.000 C 
BRANCH  35  38
ATOM     38  O   UNL     1      -2.383 -20.765  10.586  1.00  0.00    +0.000 OA
ATOM     39  H   UNL     1      -1.656 -20.261  11.009  1.00  0.00    +0.000 HD
ENDBRANCH  35  38
BRANCH  36  40
ATOM     40  O   UNL     1      -1.017 -18.586  10.122  1.00  0.00    +0.000 OA
ATOM     41  C   UNL     1       0.323 -18.861   9.739  1.00  0.00    +0.000 C 
ENDBRANCH  36  40
BRANCH  37  42
ATOM     42  O   UNL     1      -1.876 -16.835   7.756  1.00  0.00    +0.000 OA
ATOM     43  H   UNL     1      -1.506 -17.389   7.046  1.00  0.00    +0.000 HD
ENDBRANCH  37  42
ENDBRANCH  30  31
ENDBRANCH  18  30
TORSDOF 8
ENDMDL
