MODEL 1
REMARK VINA RESULT:    -8.375      0.000      0.000
REMARK INTER + INTRA:         -15.547
REMARK INTER:                 -13.271
REMARK INTRA:                  -2.276
REMARK UNBOUND:                -2.276
REMARK  Name = 
REMARK  16 active torsions:
REMARK  status: ('A' for Active; 'I' for Inactive)
REMARK    1  A    between atoms: C_1  and  C_2
REMARK    2  A    between atoms: C_2  and  C_14
REMARK    3  A    between atoms: C_3  and  C_4
REMARK    4  A    between atoms: C_4  and  C_5
REMARK    5  A    between atoms: C_7  and  O_8
REMARK    6  A    between atoms: C_9  and  C_10
REMARK    7  A    between atoms: C_12  and  O_13
REMARK    8  A    between atoms: C_14  and  C_15
REMARK    9  A    between atoms: C_15  and  C_16
REMARK   10  A    between atoms: C_17  and  C_18
REMARK   11  A    between atoms: C_17  and  C_19
REMARK   12  A    between atoms: C_19  and  C_20
REMARK   13  A    between atoms: C_20  and  C_22
REMARK   14  A    between atoms: C_22  and  C_23
REMARK   15  A    between atoms: C_23  and  C_24
REMARK   16  A    between atoms: C_23  and  C_25
REMARK                            x       y       z     vdW  Elec       q    Type
REMARK                         _______ _______ _______ _____ _____    ______ ____
ROOT
ATOM      1  C   UNL     1      -9.415  -7.351   9.076  1.00  0.00    +0.000 C 
ATOM      2  C   UNL     1      -8.842  -7.784  10.398  1.00  0.00    +0.000 C 
ATOM      3  C   UNL     1      -8.528  -9.055  10.724  1.00  0.00    +0.000 C 
ENDROOT
BRANCH   3   4
ATOM      4  C   UNL     1      -8.685 -10.296   9.885  1.00  0.00    +0.000 C 
BRANCH   4   5
ATOM      5  C   UNL     1      -7.404 -11.094   9.788  1.00  0.00    +0.000 A 
ATOM      6  C   UNL     1      -6.277 -10.695  10.527  1.00  0.00    +0.000 A 
ATOM      7  C   UNL     1      -5.085 -11.415  10.441  1.00  0.00    +0.000 A 
ATOM      8  C   UNL     1      -4.979 -12.545   9.627  1.00  0.00    +0.000 A 
ATOM      9  C   UNL     1      -3.694 -13.317   9.543  1.00  0.00    +0.000 C 
ATOM     10  C   UNL     1      -6.100 -12.948   8.891  1.00  0.00    +0.000 A 
ATOM     11  C   UNL     1      -7.294 -12.226   8.971  1.00  0.00    +0.000 A 
BRANCH   7  12
ATOM     12  O   UNL     1      -3.992 -11.024  11.160  1.00  0.00    +0.000 OA
ATOM     13  H   UNL     1      -3.569 -10.277  10.705  1.00  0.00    +0.000 HD
ENDBRANCH   7  12
BRANCH  11  14
ATOM     14  O   UNL     1      -8.379 -12.633   8.247  1.00  0.00    +0.000 OA
ATOM     15  H   UNL     1      -9.067 -11.949   8.302  1.00  0.00    +0.000 HD
ENDBRANCH  11  14
ENDBRANCH   4   5
ENDBRANCH   3   4
BRANCH   2  16
ATOM     16  C   UNL     1      -8.622  -6.657  11.393  1.00  0.00    +0.000 C 
BRANCH  16  17
ATOM     17  C   UNL     1      -7.373  -5.800  11.139  1.00  0.00    +0.000 C 
BRANCH  17  18
ATOM     18  C   UNL     1      -6.101  -6.406  11.671  1.00  0.00    +0.000 C 
ATOM     19  C   UNL     1      -5.174  -7.103  10.985  1.00  0.00    +0.000 C 
ATOM     20  C   UNL     1      -5.261  -7.427   9.517  1.00  0.00    +0.000 C 
BRANCH  19  21
ATOM     21  C   UNL     1      -3.937  -7.621  11.683  1.00  0.00    +0.000 C 
BRANCH  21  22
ATOM     22  C   UNL     1      -2.965  -6.485  11.968  1.00  0.00    +0.000 C 
ATOM     23  O   UNL     1      -2.369  -5.901  11.061  1.00  0.00    +0.000 OA
BRANCH  22  24
ATOM     24  C   UNL     1      -2.751  -6.098  13.419  1.00  0.00    +0.000 C 
BRANCH  24  25
ATOM     25  C   UNL     1      -3.730  -5.007  13.872  1.00  0.00    +0.000 C 
ATOM     26  C   UNL     1      -3.005  -3.695  14.180  1.00  0.00    +0.000 C 
ATOM     27  C   UNL     1      -4.503  -5.476  15.106  1.00  0.00    +0.000 C 
ENDBRANCH  24  25
ENDBRANCH  22  24
ENDBRANCH  21  22
ENDBRANCH  19  21
ENDBRANCH  17  18
ENDBRANCH  16  17
ENDBRANCH   2  16
TORSDOF 11
ENDMDL
