MODEL 1
REMARK VINA RESULT:    -9.073      0.000      0.000
REMARK INTER + INTRA:          -9.073
REMARK INTER:                  -9.073
REMARK INTRA:                   0.000
REMARK UNBOUND:                 0.000
REMARK  Name = 
REMARK  2 active torsions:
REMARK  status: ('A' for Active; 'I' for Inactive)
REMARK    1  A    between atoms: C_1  and  C_2
REMARK    2  A    between atoms: C_15  and  C_16
REMARK                            x       y       z     vdW  Elec       q    Type
REMARK                         _______ _______ _______ _____ _____    ______ ____
ROOT
ATOM      1  C   UNL     1      -8.604  -5.523  10.747  1.00  0.00    +0.000 C 
ATOM      2  C   UNL     1      -8.295  -6.979  10.515  1.00  0.00    +0.000 A 
ATOM      3  C   UNL     1      -9.317  -7.800  10.047  1.00  0.00    +0.000 A 
ATOM      4  C   UNL     1      -9.081  -9.148   9.807  1.00  0.00    +0.000 A 
ATOM      5  C   UNL     1      -7.820  -9.746  10.031  1.00  0.00    +0.000 A 
ATOM      6  C   UNL     1      -7.803 -11.242   9.728  1.00  0.00    +0.000 C 
ATOM      7  C   UNL     1      -6.500 -11.837   9.374  1.00  0.00    +0.000 A 
ATOM      8  O   UNL     1      -6.422 -12.662   8.297  1.00  0.00    +0.000 OA
ATOM      9  C   UNL     1      -5.134 -13.094   8.235  1.00  0.00    +0.000 A 
ATOM     10  C   UNL     1      -4.394 -12.561   9.267  1.00  0.00    +0.000 A 
ATOM     11  C   UNL     1      -5.285 -11.749  10.007  1.00  0.00    +0.000 A 
ATOM     12  C   UNL     1      -5.082 -10.907  11.201  1.00  0.00    +0.000 C 
ATOM     13  C   UNL     1      -5.357  -9.435  10.885  1.00  0.00    +0.000 C 
ATOM     14  C   UNL     1      -6.770  -8.939  10.553  1.00  0.00    +0.000 A 
ATOM     15  C   UNL     1      -7.009  -7.530  10.732  1.00  0.00    +0.000 A 
ATOM     16  C   UNL     1      -5.893  -6.614  11.199  1.00  0.00    +0.000 C 
ENDROOT
TORSDOF 0
ENDMDL
