MODEL 1
REMARK VINA RESULT:    -4.035      0.000      0.000
REMARK INTER + INTRA:          -4.374
REMARK INTER:                  -4.507
REMARK INTRA:                   0.133
REMARK UNBOUND:                 0.133
REMARK  Name = SANCDB01132.pdb
REMARK  10 active torsions:
REMARK  status: ('A' for Active; 'I' for Inactive)
REMARK    1  A    between atoms: C_1  and  C_2
REMARK    2  A    between atoms: C_2  and  C_3
REMARK    3  A    between atoms: C_6  and  C_31
REMARK    4  A    between atoms: C_9  and  C_10
REMARK    5  A    between atoms: C_15  and  C_16
REMARK    6  A    between atoms: C_19  and  O_20
REMARK    7  A    between atoms: C_21  and  C_22
REMARK    8  A    between atoms: C_21  and  C_23
REMARK    9  A    between atoms: C_27  and  C_28
REMARK   10  A    between atoms: C_31  and  O_32
REMARK                            x       y       z     vdW  Elec       q    Type
REMARK                         _______ _______ _______ _____ _____    ______ ____
ROOT
ATOM      1  C   UNL     1      -0.888  -3.924  12.719  1.00  0.00    +0.000 C 
ATOM      2  C   UNL     1      -0.801  -4.381  11.251  1.00  0.00    +0.000 C 
ATOM      3  C   UNL     1      -0.963  -3.135  10.360  1.00  0.00    +0.000 C 
ATOM      4  C   UNL     1       0.562  -5.032  10.952  1.00  0.00    +0.000 C 
ATOM      5  C   UNL     1       0.757  -6.368  11.664  1.00  0.00    +0.000 C 
ATOM      6  C   UNL     1      -0.372  -7.400  11.417  1.00  0.00    +0.000 C 
ATOM      7  C   UNL     1      -0.267  -7.996   9.998  1.00  0.00    +0.000 C 
ATOM      8  C   UNL     1      -1.322  -9.079   9.753  1.00  0.00    +0.000 C 
ATOM      9  C   UNL     1      -2.795  -8.628   9.985  1.00  0.00    +0.000 C 
ATOM     10  C   UNL     1      -3.202  -7.781   8.739  1.00  0.00    +0.000 C 
ATOM     11  C   UNL     1      -2.929  -7.692  11.203  1.00  0.00    +0.000 C 
ATOM     12  C   UNL     1      -4.055  -7.670  11.944  1.00  0.00    +0.000 C 
ATOM     13  C   UNL     1      -5.273  -8.518  11.726  1.00  0.00    +0.000 C 
ATOM     14  C   UNL     1      -5.232  -9.407  10.461  1.00  0.00    +0.000 C 
ATOM     15  C   UNL     1      -6.417 -10.471  10.362  1.00  0.00    +0.000 C 
ATOM     16  C   UNL     1      -6.447 -11.449  11.564  1.00  0.00    +0.000 C 
ATOM     17  C   UNL     1      -7.770  -9.698  10.355  1.00  0.00    +0.000 C 
ATOM     18  C   UNL     1      -8.977 -10.545   9.955  1.00  0.00    +0.000 C 
ATOM     19  C   UNL     1      -8.779 -11.240   8.612  1.00  0.00    +0.000 C 
ATOM     20  C   UNL     1      -7.481 -12.096   8.529  1.00  0.00    +0.000 C 
ATOM     21  C   UNL     1      -7.620 -13.411   9.322  1.00  0.00    +0.000 C 
ATOM     22  C   UNL     1      -7.304 -12.512   7.042  1.00  0.00    +0.000 C 
ATOM     23  C   UNL     1      -6.265 -11.204   8.978  1.00  0.00    +0.000 C 
ATOM     24  C   UNL     1      -4.883 -11.879   8.867  1.00  0.00    +0.000 C 
ATOM     25  C   UNL     1      -3.763 -10.837   8.919  1.00  0.00    +0.000 C 
ATOM     26  C   UNL     1      -3.770  -9.928  10.181  1.00  0.00    +0.000 C 
ATOM     27  C   UNL     1      -3.256 -10.800  11.370  1.00  0.00    +0.000 C 
ATOM     28  C   UNL     1      -1.775  -6.762  11.606  1.00  0.00    +0.000 C 
ATOM     29  C   UNL     1      -1.924  -5.385  10.917  1.00  0.00    +0.000 C 
ENDROOT
BRANCH  19  30
ATOM     30  O   UNL     1      -9.927 -12.043   8.337  1.00  0.00    +0.000 OA
ATOM     31  H   UNL     1      -9.826 -12.877   8.827  1.00  0.00    +0.000 HD
ENDBRANCH  19  30
BRANCH   6  32
ATOM     32  C   UNL     1      -0.154  -8.478  12.489  1.00  0.00    +0.000 C 
ATOM     33  O   UNL     1       0.779  -9.260  12.572  1.00  0.00    +0.000 OA
BRANCH  32  34
ATOM     34  O   UNL     1      -1.175  -8.578  13.366  1.00  0.00    +0.000 OA
ATOM     35  H   UNL     1      -1.938  -8.827  12.803  1.00  0.00    +0.000 HD
ENDBRANCH  32  34
ENDBRANCH   6  32
TORSDOF 3
ENDMDL
