MODEL 1
REMARK VINA RESULT:   -10.060      0.000      0.000
REMARK INTER + INTRA:         -10.060
REMARK INTER:                 -10.060
REMARK INTRA:                   0.000
REMARK UNBOUND:                 0.000
REMARK  Name = [H][C@@]23C[C@]1(C=C(Br)C(=O)C[C@@]1([H])S2)c4c(N3)c(=O)c6[nH]cc5CCN=c4c56
REMARK  0 active torsions:
REMARK  status: ('A' for Active; 'I' for Inactive)
REMARK                            x       y       z     vdW  Elec       q    Type
REMARK                         _______ _______ _______ _____ _____    ______ ____
ROOT
ATOM      1  O   UNL     1      -1.299  -6.144  10.541  1.00  0.00    +0.000 OA
ATOM      2  O   UNL     1      -7.851 -11.981   9.628  1.00  0.00    +0.000 OA
ATOM      3 BR   UNL     1      -2.589  -6.003  13.363  1.00  0.00    +0.000 Br
ATOM      4  C   UNL     1      -3.699  -8.267  12.113  1.00  0.00    +0.000 C 
ATOM      5  C   UNL     1      -9.829  -8.140   9.611  1.00  0.00    +0.000 A 
ATOM      6  C   UNL     1      -7.095  -5.945  11.140  1.00  0.00    +0.000 C 
ATOM      7  C   UNL     1      -8.307  -6.062  10.184  1.00  0.00    +0.000 C 
ATOM      8  C   UNL     1      -1.890  -8.357   9.876  1.00  0.00    +0.000 C 
ATOM      9  C   UNL     1      -3.412 -10.639  11.496  1.00  0.00    +0.000 C 
ATOM     10  N   UNL     1      -6.042  -7.000  11.030  1.00  0.00    +0.000 NA
ATOM     11  N   UNL     1      -5.119 -11.739  10.246  1.00  0.00    +0.000 N 
ATOM     12  N   UNL     1      -9.541  -9.494   9.576  1.00  0.00    +0.000 N 
ATOM     13  S   UNL     1      -3.075 -10.641   8.888  1.00  0.00    +0.000 S 
ATOM     14  C   UNL     1      -2.820  -7.257  12.003  1.00  0.00    +0.000 C 
ATOM     15  C   UNL     1      -1.974  -7.144  10.775  1.00  0.00    +0.000 C 
ATOM     16  C   UNL     1      -8.695  -7.481  10.031  1.00  0.00    +0.000 A 
ATOM     17  C   UNL     1      -5.983 -10.644  10.353  1.00  0.00    +0.000 C 
ATOM     18  C   UNL     1      -5.506  -9.422  10.719  1.00  0.00    +0.000 C 
ATOM     19  C   UNL     1      -7.442 -10.871   9.951  1.00  0.00    +0.000 C 
ATOM     20  C   UNL     1      -6.384  -8.201  10.716  1.00  0.00    +0.000 C 
ATOM     21  C   UNL     1      -8.234  -9.681   9.945  1.00  0.00    +0.000 A 
ATOM     22  C   UNL     1      -7.727  -8.459  10.285  1.00  0.00    +0.000 A 
ATOM     23  C   UNL     1      -3.683 -11.574  10.327  1.00  0.00    +0.000 C 
ATOM     24  C   UNL     1      -3.265  -8.986   9.691  1.00  0.00    +0.000 C 
ATOM     25  C   UNL     1      -3.996  -9.279  11.031  1.00  0.00    +0.000 C 
ATOM     26  H   UNL     1      -5.460 -12.450   9.597  1.00  0.00    +0.000 HD
ATOM     27  H   UNL     1     -10.167 -10.228   9.268  1.00  0.00    +0.000 HD
ENDROOT
TORSDOF 0
ENDMDL
