MODEL 1
REMARK VINA RESULT:    -4.692      0.000      0.000
REMARK INTER + INTRA:          -5.283
REMARK INTER:                  -5.241
REMARK INTRA:                  -0.042
REMARK UNBOUND:                -0.042
REMARK  Name = SANCDB01133.pdb
REMARK  4 active torsions:
REMARK  status: ('A' for Active; 'I' for Inactive)
REMARK    1  A    between atoms: C_1  and  N_2
REMARK    2  A    between atoms: C_4  and  O_5
REMARK    3  A    between atoms: C_7  and  C_8
REMARK    4  A    between atoms: C_8  and  O_9
REMARK                            x       y       z     vdW  Elec       q    Type
REMARK                         _______ _______ _______ _____ _____    ______ ____
ROOT
ATOM      1  C   UNL     1      -6.059  -6.611  11.087  1.00  0.00    +0.000 C 
ATOM      2  N   UNL     1      -7.108  -7.381  10.431  1.00  0.00    +0.000 NA
ATOM      3  C   UNL     1      -7.004  -8.817  10.737  1.00  0.00    +0.000 C 
ATOM      4  C   UNL     1      -8.430  -9.370  10.625  1.00  0.00    +0.000 C 
ATOM      5  C   UNL     1      -9.298  -8.157  10.326  1.00  0.00    +0.000 C 
ATOM      6  C   UNL     1      -8.474  -6.977  10.828  1.00  0.00    +0.000 C 
ENDROOT
BRANCH   4   7
ATOM      7  O   UNL     1      -8.543 -10.344   9.599  1.00  0.00    +0.000 OA
ATOM      8  H   UNL     1      -8.903  -9.904   8.810  1.00  0.00    +0.000 HD
ENDBRANCH   4   7
BRANCH   6   9
ATOM      9  C   UNL     1      -8.927  -5.670  10.176  1.00  0.00    +0.000 C 
ATOM     10  O   UNL     1      -9.294  -5.480   9.027  1.00  0.00    +0.000 OA
BRANCH   9  11
ATOM     11  O   UNL     1      -8.811  -4.613  11.012  1.00  0.00    +0.000 OA
ATOM     12  H   UNL     1      -8.957  -3.846  10.418  1.00  0.00    +0.000 HD
ENDBRANCH   9  11
ENDBRANCH   6   9
TORSDOF 3
ENDMDL
