MODEL 1
REMARK VINA RESULT:    -6.039      0.000      0.000
REMARK INTER + INTRA:          -7.174
REMARK INTER:                  -7.274
REMARK INTRA:                   0.100
REMARK UNBOUND:                 0.100
REMARK  Name = 
REMARK  12 active torsions:
REMARK  status: ('A' for Active; 'I' for Inactive)
REMARK    1  A    between atoms: C_1  and  C_2
REMARK    2  A    between atoms: C_4  and  C_5
REMARK    3  A    between atoms: C_7  and  C_8
REMARK    4  A    between atoms: C_12  and  C_13
REMARK    5  A    between atoms: C_13  and  C_14
REMARK    6  A    between atoms: C_13  and  C_15
REMARK    7  A    between atoms: C_19  and  C_20
REMARK    8  A    between atoms: C_20  and  C_21
REMARK    9  A    between atoms: C_24  and  O_25
REMARK   10  A    between atoms: N_29  and  C_30
REMARK   11  A    between atoms: C_36  and  C_37
REMARK   12  A    between atoms: C_41  and  C_42
REMARK                            x       y       z     vdW  Elec       q    Type
REMARK                         _______ _______ _______ _____ _____    ______ ____
ROOT
ATOM      1  C   UNL     1      -6.339  -5.078  11.902  1.00  0.00    +0.000 C 
ATOM      2  C   UNL     1      -5.991  -6.203  10.974  1.00  0.00    +0.000 C 
ATOM      3  C   UNL     1      -6.869  -6.854  10.187  1.00  0.00    +0.000 C 
ATOM      4  C   UNL     1      -8.376  -6.770  10.164  1.00  0.00    +0.000 C 
ATOM      5  C   UNL     1      -8.836  -5.886   9.008  1.00  0.00    +0.000 C 
ATOM      6  C   UNL     1      -8.958  -8.199  10.014  1.00  0.00    +0.000 C 
ATOM      7  C   UNL     1      -8.536  -9.157  11.152  1.00  0.00    +0.000 C 
ATOM      8  C   UNL     1      -9.554  -9.139  12.288  1.00  0.00    +0.000 C 
ATOM      9  O   UNL     1      -8.454 -10.521  10.679  1.00  0.00    +0.000 OA
ATOM     10  C   UNL     1      -7.324 -10.831   9.977  1.00  0.00    +0.000 C 
ATOM     11  O   UNL     1      -6.490 -10.021   9.582  1.00  0.00    +0.000 OA
ATOM     12  C   UNL     1      -7.227 -12.344   9.715  1.00  0.00    +0.000 C 
ATOM     13  N   UNL     1      -5.872 -12.659   9.227  1.00  0.00    +0.000 N 
ATOM     14  C   UNL     1      -4.824 -12.687  10.134  1.00  0.00    +0.000 C 
ATOM     15  O   UNL     1      -5.020 -12.529  11.338  1.00  0.00    +0.000 OA
ATOM     16  C   UNL     1      -3.392 -12.797   9.547  1.00  0.00    +0.000 C 
ATOM     17  N   UNL     1      -2.832 -11.451   9.218  1.00  0.00    +0.000 N 
ATOM     18  C   UNL     1      -3.383 -10.740   8.070  1.00  0.00    +0.000 C 
ATOM     19  C   UNL     1      -1.879 -10.926  10.097  1.00  0.00    +0.000 C 
ATOM     20  O   UNL     1      -1.320 -11.658  10.924  1.00  0.00    +0.000 OA
ATOM     21  C   UNL     1      -1.397  -9.455   9.983  1.00  0.00    +0.000 C 
ATOM     22  C   UNL     1      -0.293  -9.343   8.932  1.00  0.00    +0.000 C 
ATOM     23  N   UNL     1      -2.483  -8.495   9.781  1.00  0.00    +0.000 N 
ATOM     24  C   UNL     1      -2.314  -7.149  10.042  1.00  0.00    +0.000 C 
ATOM     25  O   UNL     1      -1.230  -6.652  10.329  1.00  0.00    +0.000 OA
ATOM     26  C   UNL     1      -3.582  -6.300   9.937  1.00  0.00    +0.000 C 
ATOM     27  C   UNL     1      -4.121  -6.382   8.509  1.00  0.00    +0.000 C 
ATOM     28  C   UNL     1      -4.563  -6.715  11.049  1.00  0.00    +0.000 C 
ATOM     29  H   UNL     1      -5.644 -12.319   8.304  1.00  0.00    +0.000 HD
ATOM     30  H   UNL     1      -3.423  -8.864   9.856  1.00  0.00    +0.000 HD
ENDROOT
BRANCH  12  31
ATOM     31  C   UNL     1      -8.334 -12.809   8.742  1.00  0.00    +0.000 C 
ATOM     32  C   UNL     1      -9.605 -13.293   9.447  1.00  0.00    +0.000 C 
ATOM     33  C   UNL     1      -8.681 -11.708   7.737  1.00  0.00    +0.000 C 
ENDBRANCH  12  31
BRANCH  16  34
ATOM     34  C   UNL     1      -3.247 -13.810   8.394  1.00  0.00    +0.000 C 
BRANCH  34  35
ATOM     35  C   UNL     1      -3.397 -15.255   8.821  1.00  0.00    +0.000 A 
ATOM     36  C   UNL     1      -4.505 -15.666   9.574  1.00  0.00    +0.000 A 
ATOM     37  C   UNL     1      -4.647 -17.000   9.964  1.00  0.00    +0.000 A 
ATOM     38  C   UNL     1      -3.676 -17.936   9.609  1.00  0.00    +0.000 A 
ATOM     39  C   UNL     1      -2.560 -17.539   8.869  1.00  0.00    +0.000 A 
ATOM     40  I   UNL     1      -1.066 -18.892   8.311  1.00  0.00    +0.000 I 
ATOM     41  C   UNL     1      -2.421 -16.203   8.479  1.00  0.00    +0.000 A 
BRANCH  38  42
ATOM     42  O   UNL     1      -3.824 -19.239   9.993  1.00  0.00    +0.000 OA
ATOM     43  H   UNL     1      -2.995 -19.552  10.391  1.00  0.00    +0.000 HD
ENDBRANCH  38  42
ENDBRANCH  34  35
ENDBRANCH  16  34
TORSDOF 4
ENDMDL
