MODEL 1
REMARK VINA RESULT:    -8.879      0.000      0.000
REMARK INTER + INTRA:         -14.170
REMARK INTER:                 -12.772
REMARK INTRA:                  -1.399
REMARK UNBOUND:                -1.399
REMARK  Name = [H][C@@]34CC[C@@H](C)[C@@](C)(CC[C@@]12O[C@H](CC[C@@H]1C)[C@]2(C)CCC(=O)C(C)...
REMARK  16 active torsions:
REMARK  status: ('A' for Active; 'I' for Inactive)
REMARK    1  A    between atoms: C_2  and  C_26
REMARK    2  A    between atoms: C_3  and  C_26
REMARK    3  A    between atoms: C_4  and  C_27
REMARK    4  A    between atoms: C_5  and  C_28
REMARK    5  A    between atoms: C_6  and  C_31
REMARK    6  A    between atoms: C_7  and  C_31
REMARK    7  A    between atoms: C_8  and  C_33
REMARK    8  A    between atoms: C_9  and  C_34
REMARK    9  A    between atoms: O_11  and  C_29
REMARK   10  A    between atoms: C_13  and  C_18
REMARK   11  A    between atoms: C_13  and  C_24
REMARK   12  A    between atoms: C_18  and  C_34
REMARK   13  A    between atoms: C_20  and  C_21
REMARK   14  A    between atoms: C_20  and  C_33
REMARK   15  A    between atoms: C_21  and  C_35
REMARK   16  A    between atoms: C_24  and  C_26
REMARK                            x       y       z     vdW  Elec       q    Type
REMARK                         _______ _______ _______ _____ _____    ______ ____
ROOT
ATOM      1  C   UNL     1      -5.330  -8.852  10.964  1.00  0.00    +0.000 C 
ENDROOT
BRANCH   1  16
ATOM      2  C   UNL     1      -2.728  -8.158   9.407  1.00  0.00    +0.000 C 
ATOM      3  C   UNL     1      -3.157 -15.060   8.201  1.00  0.00    +0.000 C 
ATOM      4  C   UNL     1      -3.713 -14.082  10.387  1.00  0.00    +0.000 C 
ATOM      5  C   UNL     1      -4.055 -10.580  12.220  1.00  0.00    +0.000 C 
ATOM      6  C   UNL     1      -5.599 -11.472   9.530  1.00  0.00    +0.000 C 
ATOM      7  C   UNL     1      -5.961 -12.394   8.415  1.00  0.00    +0.000 C 
ATOM      8  C   UNL     1      -1.566 -10.081  10.540  1.00  0.00    +0.000 C 
ATOM      9  C   UNL     1      -1.838 -11.412   9.846  1.00  0.00    +0.000 C 
ATOM     10  O   UNL     1      -3.178 -12.713   8.331  1.00  0.00    +0.000 OA
ATOM     11  C   UNL     1      -4.362 -10.984   9.769  1.00  0.00    +0.000 C 
ATOM     12  C   UNL     1      -2.769  -9.117  10.606  1.00  0.00    +0.000 C 
ATOM     13  C   UNL     1      -5.359 -13.801   8.451  1.00  0.00    +0.000 C 
ATOM     14  C   UNL     1      -3.858 -13.855   8.870  1.00  0.00    +0.000 C 
ATOM     15  C   UNL     1      -3.120 -11.452   9.011  1.00  0.00    +0.000 C 
ATOM     16  C   UNL     1      -4.132  -9.873  10.832  1.00  0.00    +0.000 C 
BRANCH  13  17
ATOM     17  O   UNL     1      -5.546 -14.331   7.123  1.00  0.00    +0.000 OA
ATOM     18  H   UNL     1      -4.797 -14.938   6.966  1.00  0.00    +0.000 HD
ENDBRANCH  13  17
ENDBRANCH   1  16
BRANCH   1  19
ATOM     19  C   UNL     1      -5.767  -8.078   9.704  1.00  0.00    +0.000 C 
BRANCH  19  28
ATOM     20  C   UNL     1      -8.283  -9.808  10.047  1.00  0.00    +0.000 C 
ATOM     21  C   UNL     1      -8.204  -7.090  12.291  1.00  0.00    +0.000 C 
ATOM     22  C   UNL     1      -9.707  -7.793   9.501  1.00  0.00    +0.000 C 
ATOM     23  C   UNL     1      -9.666  -6.266   9.551  1.00  0.00    +0.000 C 
ATOM     24  O   UNL     1      -7.304  -6.265   8.982  1.00  0.00    +0.000 OA
ATOM     25  C   UNL     1      -8.320  -8.450   9.345  1.00  0.00    +0.000 C 
ATOM     26  C   UNL     1      -8.286  -5.770   9.962  1.00  0.00    +0.000 C 
ATOM     27  C   UNL     1      -7.473  -6.519  11.082  1.00  0.00    +0.000 C 
ATOM     28  C   UNL     1      -7.190  -7.489   9.823  1.00  0.00    +0.000 C 
BRANCH  27  29
ATOM     29  C   UNL     1      -6.241  -5.688  11.551  1.00  0.00    +0.000 C 
BRANCH  29  30
ATOM     30  C   UNL     1      -5.764  -6.049  12.957  1.00  0.00    +0.000 C 
BRANCH  30  32
ATOM     31  O   UNL     1      -4.237  -4.370  13.720  1.00  0.00    +0.000 OA
ATOM     32  C   UNL     1      -4.376  -5.483  13.205  1.00  0.00    +0.000 C 
BRANCH  32  35
ATOM     33  C   UNL     1      -2.894  -7.426  13.796  1.00  0.00    +0.000 C 
ATOM     34  C   UNL     1      -1.939  -5.414  12.600  1.00  0.00    +0.000 C 
ATOM     35  C   UNL     1      -3.159  -6.304  12.799  1.00  0.00    +0.000 C 
ENDBRANCH  32  35
ENDBRANCH  30  32
ENDBRANCH  29  30
ENDBRANCH  27  29
ENDBRANCH  19  28
ENDBRANCH   1  19
TORSDOF 8
ENDMDL
