MODEL 1
REMARK VINA RESULT:    -8.174      0.000      0.000
REMARK INTER + INTRA:         -15.569
REMARK INTER:                 -13.192
REMARK INTRA:                  -2.378
REMARK UNBOUND:                -2.378
REMARK  Name = 
REMARK  17 active torsions:
REMARK  status: ('A' for Active; 'I' for Inactive)
REMARK    1  A    between atoms: C_1  and  C_2
REMARK    2  A    between atoms: C_2  and  C_14
REMARK    3  A    between atoms: C_3  and  C_4
REMARK    4  A    between atoms: C_4  and  C_5
REMARK    5  A    between atoms: C_7  and  O_8
REMARK    6  A    between atoms: C_9  and  C_10
REMARK    7  A    between atoms: C_12  and  O_13
REMARK    8  A    between atoms: C_14  and  C_15
REMARK    9  A    between atoms: C_15  and  C_16
REMARK   10  A    between atoms: C_17  and  C_18
REMARK   11  A    between atoms: C_17  and  C_19
REMARK   12  A    between atoms: C_19  and  C_20
REMARK   13  A    between atoms: C_20  and  O_21
REMARK   14  A    between atoms: C_20  and  C_22
REMARK   15  A    between atoms: C_22  and  C_23
REMARK   16  A    between atoms: C_23  and  C_24
REMARK   17  A    between atoms: C_23  and  C_25
REMARK                            x       y       z     vdW  Elec       q    Type
REMARK                         _______ _______ _______ _____ _____    ______ ____
ROOT
ATOM      1  C   UNL     1      -9.425  -7.365   9.214  1.00  0.00    +0.000 C 
ATOM      2  C   UNL     1      -8.829  -7.818  10.521  1.00  0.00    +0.000 C 
ATOM      3  C   UNL     1      -8.567  -9.104  10.837  1.00  0.00    +0.000 C 
ENDROOT
BRANCH   3   4
ATOM      4  C   UNL     1      -8.734 -10.323   9.971  1.00  0.00    +0.000 C 
BRANCH   4   5
ATOM      5  C   UNL     1      -7.415 -10.987   9.654  1.00  0.00    +0.000 A 
ATOM      6  C   UNL     1      -6.230 -10.356  10.067  1.00  0.00    +0.000 A 
ATOM      7  C   UNL     1      -4.982 -10.923   9.805  1.00  0.00    +0.000 A 
ATOM      8  C   UNL     1      -4.871 -12.136   9.120  1.00  0.00    +0.000 A 
ATOM      9  C   UNL     1      -3.548 -12.778   8.822  1.00  0.00    +0.000 C 
ATOM     10  C   UNL     1      -6.051 -12.760   8.694  1.00  0.00    +0.000 A 
ATOM     11  C   UNL     1      -7.302 -12.191   8.951  1.00  0.00    +0.000 A 
BRANCH   7  12
ATOM     12  O   UNL     1      -3.899 -10.223  10.257  1.00  0.00    +0.000 OA
ATOM     13  H   UNL     1      -4.106  -9.276  10.252  1.00  0.00    +0.000 HD
ENDBRANCH   7  12
BRANCH  11  14
ATOM     14  O   UNL     1      -8.374 -12.886   8.471  1.00  0.00    +0.000 OA
ATOM     15  H   UNL     1      -8.354 -12.886   7.502  1.00  0.00    +0.000 HD
ENDBRANCH  11  14
ENDBRANCH   4   5
ENDBRANCH   3   4
BRANCH   2  16
ATOM     16  C   UNL     1      -8.588  -6.719  11.546  1.00  0.00    +0.000 C 
BRANCH  16  17
ATOM     17  C   UNL     1      -7.569  -5.654  11.113  1.00  0.00    +0.000 C 
BRANCH  17  18
ATOM     18  C   UNL     1      -6.137  -6.016  11.400  1.00  0.00    +0.000 C 
ATOM     19  C   UNL     1      -5.236  -6.545  10.547  1.00  0.00    +0.000 C 
ATOM     20  C   UNL     1      -5.531  -6.876   9.109  1.00  0.00    +0.000 C 
BRANCH  19  21
ATOM     21  C   UNL     1      -3.819  -6.833  11.022  1.00  0.00    +0.000 C 
BRANCH  21  22
ATOM     22  C   UNL     1      -3.732  -7.252  12.504  1.00  0.00    +0.000 C 
BRANCH  22  23
ATOM     23  O   UNL     1      -3.114  -8.529  12.672  1.00  0.00    +0.000 OA
ATOM     24  H   UNL     1      -3.393  -9.108  11.944  1.00  0.00    +0.000 HD
ENDBRANCH  22  23
BRANCH  22  25
ATOM     25  C   UNL     1      -2.999  -6.223  13.383  1.00  0.00    +0.000 C 
BRANCH  25  26
ATOM     26  C   UNL     1      -3.826  -5.041  13.936  1.00  0.00    +0.000 C 
ATOM     27  C   UNL     1      -2.997  -3.778  14.175  1.00  0.00    +0.000 C 
ATOM     28  C   UNL     1      -4.497  -5.463  15.249  1.00  0.00    +0.000 C 
ENDBRANCH  25  26
ENDBRANCH  22  25
ENDBRANCH  21  22
ENDBRANCH  19  21
ENDBRANCH  17  18
ENDBRANCH  16  17
ENDBRANCH   2  16
TORSDOF 12
ENDMDL
