MODEL 1
REMARK VINA RESULT:    -8.052      0.000      0.000
REMARK INTER + INTRA:         -10.558
REMARK INTER:                  -9.935
REMARK INTRA:                  -0.623
REMARK UNBOUND:                -0.623
REMARK  Name = SANCDB01134.pdb
REMARK  10 active torsions:
REMARK  status: ('A' for Active; 'I' for Inactive)
REMARK    1  A    between atoms: C_1  and  C_2
REMARK    2  A    between atoms: C_2  and  O_3
REMARK    3  A    between atoms: O_3  and  C_4
REMARK    4  A    between atoms: C_13  and  C_14
REMARK    5  A    between atoms: C_13  and  C_15
REMARK    6  A    between atoms: C_18  and  O_19
REMARK    7  A    between atoms: C_20  and  O_21
REMARK    8  A    between atoms: C_22  and  C_25
REMARK    9  A    between atoms: C_25  and  C_26
REMARK   10  A    between atoms: C_25  and  C_27
REMARK                            x       y       z     vdW  Elec       q    Type
REMARK                         _______ _______ _______ _____ _____    ______ ____
ROOT
ATOM      1  C   UNL     1      -3.743  -6.023  13.285  1.00  0.00    +0.000 C 
ATOM      2  C   UNL     1      -2.209  -6.178  13.203  1.00  0.00    +0.000 C 
ATOM      3  O   UNL     1      -1.834  -7.570  13.289  1.00  0.00    +0.000 OA
ATOM      4  C   UNL     1      -1.760  -8.084  12.014  1.00  0.00    +0.000 C 
ATOM      5  O   UNL     1      -1.498  -9.245  11.750  1.00  0.00    +0.000 OA
ATOM      6  C   UNL     1      -2.135  -6.991  11.028  1.00  0.00    +0.000 C 
ATOM      7  C   UNL     1      -1.401  -7.095   9.679  1.00  0.00    +0.000 C 
ATOM      8  C   UNL     1       0.073  -6.705   9.689  1.00  0.00    +0.000 C 
ATOM      9  C   UNL     1       0.291  -5.348  10.335  1.00  0.00    +0.000 C 
ATOM     10  C   UNL     1      -0.199  -5.324  11.796  1.00  0.00    +0.000 C 
ATOM     11  C   UNL     1       0.746  -6.183  12.666  1.00  0.00    +0.000 C 
ATOM     12  C   UNL     1      -0.076  -3.870  12.314  1.00  0.00    +0.000 C 
ATOM     13  C   UNL     1      -1.709  -5.737  11.831  1.00  0.00    +0.000 C 
ATOM     14  C   UNL     1      -3.682  -7.039  10.933  1.00  0.00    +0.000 A 
ATOM     15  C   UNL     1      -4.410  -7.628   9.895  1.00  0.00    +0.000 A 
ATOM     16  C   UNL     1      -5.809  -7.545   9.836  1.00  0.00    +0.000 A 
ATOM     17  C   UNL     1      -6.552  -6.936  10.844  1.00  0.00    +0.000 A 
ATOM     18  C   UNL     1      -5.842  -6.442  11.947  1.00  0.00    +0.000 A 
ATOM     19  C   UNL     1      -4.433  -6.500  12.011  1.00  0.00    +0.000 A 
ENDROOT
BRANCH  17  20
ATOM     20  C   UNL     1      -8.066  -6.851  10.779  1.00  0.00    +0.000 C 
ATOM     21  C   UNL     1      -8.559  -5.401  10.785  1.00  0.00    +0.000 C 
ATOM     22  C   UNL     1      -8.711  -7.649  11.914  1.00  0.00    +0.000 C 
ENDBRANCH  17  20
BRANCH  15  23
ATOM     23  O   UNL     1      -3.830  -8.380   8.908  1.00  0.00    +0.000 OA
ATOM     24  H   UNL     1      -3.679  -9.263   9.296  1.00  0.00    +0.000 HD
ENDBRANCH  15  23
BRANCH  16  25
ATOM     25  O   UNL     1      -6.442  -8.114   8.761  1.00  0.00    +0.000 OA
ATOM     26  H   UNL     1      -6.920  -8.882   9.133  1.00  0.00    +0.000 HD
ENDBRANCH  16  25
BRANCH   1  27
ATOM     27  O   UNL     1      -4.075  -4.641  13.459  1.00  0.00    +0.000 OA
BRANCH  27  29
ATOM     28  C   UNL     1      -4.827  -5.292  15.625  1.00  0.00    +0.000 C 
ATOM     29  C   UNL     1      -4.081  -4.243  14.827  1.00  0.00    +0.000 C 
ENDBRANCH  27  29
ENDBRANCH   1  27
TORSDOF 5
ENDMDL
