MODEL 1
REMARK VINA RESULT:    -9.471      0.000      0.000
REMARK INTER + INTRA:          -9.748
REMARK INTER:                  -9.748
REMARK INTRA:                   0.000
REMARK UNBOUND:                 0.000
REMARK  Name = 
REMARK  1 active torsions:
REMARK  status: ('A' for Active; 'I' for Inactive)
REMARK    1  A    between atoms: C_8  and  O_9
REMARK                            x       y       z     vdW  Elec       q    Type
REMARK                         _______ _______ _______ _____ _____    ______ ____
ROOT
ATOM      1  O   UNL     1      -3.726  -9.326   9.536  1.00  0.00    +0.000 OA
ATOM      2  C   UNL     1      -4.266  -9.329  10.635  1.00  0.00    +0.000 C 
ATOM      3  C   UNL     1      -4.458 -10.563  11.489  1.00  0.00    +0.000 C 
ATOM      4  C   UNL     1      -4.782 -11.818  10.666  1.00  0.00    +0.000 C 
ATOM      5  C   UNL     1      -6.109 -11.842   9.936  1.00  0.00    +0.000 A 
ATOM      6  C   UNL     1      -6.263 -12.632   8.787  1.00  0.00    +0.000 A 
ATOM      7  C   UNL     1      -7.477 -12.659   8.086  1.00  0.00    +0.000 A 
ATOM      8  C   UNL     1      -8.547 -11.874   8.514  1.00  0.00    +0.000 A 
ATOM      9  C   UNL     1      -8.414 -11.081   9.650  1.00  0.00    +0.000 A 
ATOM     10  C   UNL     1      -7.217 -11.120  10.386  1.00  0.00    +0.000 A 
ATOM     11  O   UNL     1      -9.453 -10.235  10.016  1.00  0.00    +0.000 OA
ATOM     12  C   UNL     1      -9.021  -8.965  10.344  1.00  0.00    +0.000 A 
ATOM     13  C   UNL     1      -8.991  -8.594  11.685  1.00  0.00    +0.000 A 
ATOM     14  C   UNL     1      -8.237  -7.482  12.058  1.00  0.00    +0.000 A 
ATOM     15  C   UNL     1      -7.541  -6.719  11.104  1.00  0.00    +0.000 A 
ATOM     16  C   UNL     1      -7.740  -7.020   9.746  1.00  0.00    +0.000 A 
ATOM     17  C   UNL     1      -8.471  -8.142   9.361  1.00  0.00    +0.000 A 
ATOM     18  C   UNL     1      -6.566  -5.654  11.524  1.00  0.00    +0.000 C 
ATOM     19  O   UNL     1      -5.619  -5.995  12.561  1.00  0.00    +0.000 OA
ATOM     20  C   UNL     1      -5.074  -5.797  11.257  1.00  0.00    +0.000 C 
ATOM     21  C   UNL     1      -4.442  -6.989  10.595  1.00  0.00    +0.000 C 
ATOM     22  O   UNL     1      -4.700  -8.217  11.294  1.00  0.00    +0.000 OA
ENDROOT
BRANCH   8  23
ATOM     23  O   UNL     1      -9.719 -11.855   7.812  1.00  0.00    +0.000 OA
ATOM     24  H   UNL     1      -9.935 -10.935   7.589  1.00  0.00    +0.000 HD
ENDBRANCH   8  23
TORSDOF 1
ENDMDL
