MODEL 1
REMARK VINA RESULT:    -5.705      0.000      0.000
REMARK INTER + INTRA:          -7.598
REMARK INTER:                  -7.539
REMARK INTRA:                  -0.059
REMARK UNBOUND:                -0.059
REMARK  Name = SANCDB01051.pdb
REMARK  11 active torsions:
REMARK  status: ('A' for Active; 'I' for Inactive)
REMARK    1  A    between atoms: C_1  and  C_2
REMARK    2  A    between atoms: C_2  and  C_4
REMARK    3  A    between atoms: C_5  and  O_18
REMARK    4  A    between atoms: C_6  and  O_16
REMARK    5  A    between atoms: C_7  and  O_14
REMARK    6  A    between atoms: C_8  and  O_12
REMARK    7  A    between atoms: C_9  and  O_10
REMARK    8  A    between atoms: O_10  and  C_11
REMARK    9  A    between atoms: O_12  and  C_13
REMARK   10  A    between atoms: O_14  and  C_15
REMARK   11  A    between atoms: O_16  and  C_17
REMARK                            x       y       z     vdW  Elec       q    Type
REMARK                         _______ _______ _______ _____ _____    ______ ____
ROOT
ATOM      1  C   UNL     1      -5.770  -9.434  10.505  1.00  0.00    +0.000 A 
ATOM      2  C   UNL     1      -7.138  -9.715  10.467  1.00  0.00    +0.000 A 
ATOM      3  C   UNL     1      -8.095  -8.714  10.701  1.00  0.00    +0.000 A 
ATOM      4  C   UNL     1      -7.663  -7.423  11.024  1.00  0.00    +0.000 A 
ATOM      5  C   UNL     1      -6.291  -7.125  11.017  1.00  0.00    +0.000 A 
ATOM      6  C   UNL     1      -5.341  -8.133  10.792  1.00  0.00    +0.000 A 
ENDROOT
BRANCH   1   8
ATOM      7  C   UNL     1      -4.054 -11.065  11.468  1.00  0.00    +0.000 C 
ATOM      8  C   UNL     1      -4.779 -10.506  10.273  1.00  0.00    +0.000 C 
ATOM      9  O   UNL     1      -4.567 -10.908   9.132  1.00  0.00    +0.000 OA
ENDBRANCH   1   8
BRANCH   6  10
ATOM     10  O   UNL     1      -4.005  -7.827  10.743  1.00  0.00    +0.000 OA
ATOM     11  C   UNL     1      -3.654  -7.316   9.454  1.00  0.00    +0.000 C 
ENDBRANCH   6  10
BRANCH   5  12
ATOM     12  O   UNL     1      -5.874  -5.843  11.290  1.00  0.00    +0.000 OA
ATOM     13  C   UNL     1      -5.398  -5.764  12.634  1.00  0.00    +0.000 C 
ENDBRANCH   5  12
BRANCH   4  14
ATOM     14  O   UNL     1      -8.568  -6.430  11.305  1.00  0.00    +0.000 OA
ATOM     15  C   UNL     1      -8.966  -5.774  10.099  1.00  0.00    +0.000 C 
ENDBRANCH   4  14
BRANCH   3  16
ATOM     16  O   UNL     1      -9.398  -9.147  10.634  1.00  0.00    +0.000 OA
ATOM     17  C   UNL     1      -9.966  -9.175   9.327  1.00  0.00    +0.000 C 
ENDBRANCH   3  16
BRANCH   2  18
ATOM     18  O   UNL     1      -7.577 -10.989  10.202  1.00  0.00    +0.000 OA
ATOM     19  H   UNL     1      -6.797 -11.569  10.320  1.00  0.00    +0.000 HD
ENDBRANCH   2  18
TORSDOF 6
ENDMDL
