MODEL 1
REMARK VINA RESULT:    -9.370      0.000      0.000
REMARK INTER + INTRA:         -11.375
REMARK INTER:                 -11.013
REMARK INTRA:                  -0.362
REMARK UNBOUND:                -0.362
REMARK  Name = 
REMARK  6 active torsions:
REMARK  status: ('A' for Active; 'I' for Inactive)
REMARK    1  A    between atoms: C_2  and  C_3
REMARK    2  A    between atoms: C_3  and  C_4
REMARK    3  A    between atoms: C_3  and  C_5
REMARK    4  A    between atoms: C_3  and  C_6
REMARK    5  A    between atoms: C_15  and  C_16
REMARK    6  A    between atoms: CA_21  and  CB_23
REMARK                            x       y       z     vdW  Elec       q    Type
REMARK                         _______ _______ _______ _____ _____    ______ ____
ROOT
ATOM      1  C   UNK A   1      -5.872  -9.874   9.987  1.00  0.00    +0.000 A 
ATOM      2  N   UNK A   1      -7.238 -10.072   9.916  1.00  0.00    +0.000 N 
ATOM      3  H   UNK A   1      -7.700 -10.969   9.950  1.00  0.00    +0.000 HD
ATOM      4  C   UNK A   1      -7.915  -8.884   9.785  1.00  0.00    +0.000 A 
ATOM      5  C   UNK A   1      -9.289  -8.638   9.675  1.00  0.00    +0.000 A 
ATOM      6  C   UNK A   1      -9.703  -7.308   9.564  1.00  0.00    +0.000 A 
ATOM      7  C   UNK A   1      -8.779  -6.267   9.569  1.00  0.00    +0.000 A 
ATOM      8  C   UNK A   1      -7.408  -6.533   9.682  1.00  0.00    +0.000 A 
ATOM      9  C   UNK A   1      -6.964  -7.868   9.786  1.00  0.00    +0.000 A 
ATOM     10  C   UNK A   1      -5.688  -8.498   9.904  1.00  0.00    +0.000 A 
ENDROOT
BRANCH  10  11
ATOM     11  C   UNK A   1      -4.422  -7.836   9.946  1.00  0.00    +0.000 C 
ATOM     12  C   UNK A   1      -4.002  -6.992  10.906  1.00  0.00    +0.000 C 
ATOM     13  N   UNK A   1      -4.785  -6.631  11.982  1.00  0.00    +0.000 N 
ATOM     14  C   ALA A   2      -4.370  -5.823  13.014  1.00  0.00    +0.000 C 
ATOM     15  O   ALA A   2      -5.135  -5.525  13.927  1.00  0.00    +0.000 OA
ATOM     16  CA  ALA A   2      -2.861  -5.523  13.031  1.00  0.00    +0.000 C 
ATOM     17  CB  ALA A   2      -2.562  -4.260  13.826  1.00  0.00    +0.000 C 
ATOM     18  N   ALA A   2      -2.323  -5.420  11.683  1.00  0.00    +0.000 N 
ATOM     19  C   UNK A   1      -2.643  -6.365  10.739  1.00  0.00    +0.000 C 
ATOM     20  O   UNK A   1      -1.883  -6.614   9.812  1.00  0.00    +0.000 OA
ATOM     21  H   UNK A   1      -5.750  -6.942  12.016  1.00  0.00    +0.000 HD
ATOM     22  H   ALA A   2      -1.368  -5.100  11.579  1.00  0.00    +0.000 HD
ENDBRANCH  10  11
BRANCH   1  23
ATOM     23  C   UNK A   1      -4.886 -11.042  10.131  1.00  0.00    +0.000 C 
ATOM     24  C   UNK A   1      -3.641 -10.739   9.264  1.00  0.00    +0.000 C 
ATOM     25  C   UNK A   1      -4.381 -11.179  11.591  1.00  0.00    +0.000 C 
BRANCH  23  27
ATOM     26  C   UNK A   1      -5.453 -12.886   8.415  1.00  0.00    +0.000 C 
ATOM     27  C   UNK A   1      -5.487 -12.366   9.652  1.00  0.00    +0.000 C 
ENDBRANCH  23  27
ENDBRANCH   1  23
TORSDOF 3
ENDMDL
