MODEL 1
REMARK VINA RESULT:    -7.552      0.000      0.000
REMARK INTER + INTRA:         -13.426
REMARK INTER:                 -11.967
REMARK INTRA:                  -1.459
REMARK UNBOUND:                -1.459
REMARK  Name = 
REMARK  13 active torsions:
REMARK  status: ('A' for Active; 'I' for Inactive)
REMARK    1  A    between atoms: C_1  and  C_2
REMARK    2  A    between atoms: C_2  and  C_3
REMARK    3  A    between atoms: C_3  and  C_4
REMARK    4  A    between atoms: C_7  and  C_8
REMARK    5  A    between atoms: C_8  and  C_9
REMARK    6  A    between atoms: C_9  and  C_10
REMARK    7  A    between atoms: C_10  and  C_11
REMARK    8  A    between atoms: C_11  and  O_12
REMARK    9  A    between atoms: O_12  and  C_13
REMARK   10  A    between atoms: C_19  and  C_20
REMARK   11  A    between atoms: C_20  and  C_21
REMARK   12  A    between atoms: C_21  and  O_23
REMARK   13  A    between atoms: O_23  and  C_24
REMARK                            x       y       z     vdW  Elec       q    Type
REMARK                         _______ _______ _______ _____ _____    ______ ____
ROOT
ATOM      1  C   UNL     1      -2.802  -8.936  10.870  1.00  0.00    +0.000 C 
ATOM      2  C   UNL     1      -3.873  -9.650  11.683  1.00  0.00    +0.000 C 
ATOM      3  C   UNL     1      -4.317 -10.879  11.365  1.00  0.00    +0.000 C 
ATOM      4  C   UNL     1      -3.827 -11.579  10.121  1.00  0.00    +0.000 C 
ATOM      5  O   UNL     1      -3.295 -10.576   9.236  1.00  0.00    +0.000 OA
ATOM      6  O   UNL     1      -2.208  -9.913   9.972  1.00  0.00    +0.000 OA
ENDROOT
BRANCH   1   7
ATOM      7  O   UNL     1      -1.745  -8.518  11.742  1.00  0.00    +0.000 OA
ATOM      8  C   UNL     1      -2.091  -7.982  13.007  1.00  0.00    +0.000 C 
ENDBRANCH   1   7
BRANCH   1   9
ATOM      9  C   UNL     1      -3.399  -7.783  10.026  1.00  0.00    +0.000 C 
BRANCH   9  10
ATOM     10  C   UNL     1      -4.904  -7.523  10.217  1.00  0.00    +0.000 C 
BRANCH  10  11
ATOM     11  C   UNL     1      -5.239  -6.260  11.011  1.00  0.00    +0.000 C 
BRANCH  11  15
ATOM     12  C   UNL     1      -9.294  -6.802   9.981  1.00  0.00    +0.000 C 
ATOM     13  C   UNL     1      -8.810  -7.050  11.390  1.00  0.00    +0.000 C 
ATOM     14  C   UNL     1      -7.630  -6.570  11.818  1.00  0.00    +0.000 C 
ATOM     15  C   UNL     1      -6.709  -5.832  10.877  1.00  0.00    +0.000 C 
ATOM     16  O   UNL     1      -7.101  -6.130   9.522  1.00  0.00    +0.000 OA
ATOM     17  O   UNL     1      -8.513  -5.742   9.399  1.00  0.00    +0.000 OA
BRANCH  12  18
ATOM     18  C   UNL     1      -9.271  -8.079   9.128  1.00  0.00    +0.000 C 
BRANCH  18  20
ATOM     19  C   UNL     1      -7.789  -9.997   9.977  1.00  0.00    +0.000 C 
ATOM     20  C   UNL     1      -9.177  -9.378   9.938  1.00  0.00    +0.000 C 
ENDBRANCH  18  20
ENDBRANCH  12  18
ENDBRANCH  11  15
ENDBRANCH  10  11
ENDBRANCH   9  10
ENDBRANCH   1   9
BRANCH   4  21
ATOM     21  C   UNL     1      -4.940 -12.287   9.365  1.00  0.00    +0.000 C 
BRANCH  21  22
ATOM     22  C   UNL     1      -4.368 -13.388   8.522  1.00  0.00    +0.000 C 
ATOM     23  O   UNL     1      -3.409 -13.251   7.775  1.00  0.00    +0.000 OA
BRANCH  22  24
ATOM     24  O   UNL     1      -5.082 -14.536   8.684  1.00  0.00    +0.000 OA
ATOM     25  C   UNL     1      -4.468 -15.485   9.558  1.00  0.00    +0.000 C 
ENDBRANCH  22  24
ENDBRANCH  21  22
ENDBRANCH   4  21
TORSDOF 10
ENDMDL
