MODEL 1
REMARK VINA RESULT:    -8.378      0.000      0.000
REMARK INTER + INTRA:         -16.103
REMARK INTER:                 -14.010
REMARK INTRA:                  -2.093
REMARK UNBOUND:                -2.093
REMARK  Name = 
REMARK  18 active torsions:
REMARK  status: ('A' for Active; 'I' for Inactive)
REMARK    1  A    between atoms: C_1  and  C_2
REMARK    2  A    between atoms: C_2  and  O_4
REMARK    3  A    between atoms: O_4  and  C_5
REMARK    4  A    between atoms: C_7  and  C_8
REMARK    5  A    between atoms: C_9  and  O_10
REMARK    6  A    between atoms: C_12  and  C_13
REMARK    7  A    between atoms: C_13  and  C_14
REMARK    8  A    between atoms: C_15  and  C_16
REMARK    9  A    between atoms: C_15  and  C_17
REMARK   10  A    between atoms: C_17  and  C_18
REMARK   11  A    between atoms: C_18  and  C_19
REMARK   12  A    between atoms: C_19  and  C_20
REMARK   13  A    between atoms: C_20  and  C_21
REMARK   14  A    between atoms: C_22  and  C_23
REMARK   15  A    between atoms: C_23  and  C_25
REMARK   16  A    between atoms: C_25  and  C_26
REMARK   17  A    between atoms: C_26  and  C_27
REMARK   18  A    between atoms: C_26  and  C_28
REMARK                            x       y       z     vdW  Elec       q    Type
REMARK                         _______ _______ _______ _____ _____    ______ ____
ROOT
ATOM      1  C   UNL     1      -7.716  -7.697  11.240  1.00  0.00    +0.000 C 
ATOM      2  C   UNL     1      -8.692  -7.785  10.313  1.00  0.00    +0.000 C 
ATOM      3  C   UNL     1      -9.311  -6.616   9.596  1.00  0.00    +0.000 C 
ENDROOT
BRANCH   1   4
ATOM      4  C   UNL     1      -7.057  -6.453  11.775  1.00  0.00    +0.000 C 
BRANCH   4  11
ATOM      5  C   UNL     1      -4.637  -6.038  12.500  1.00  0.00    +0.000 A 
ATOM      6  C   UNL     1      -3.264  -6.002  12.238  1.00  0.00    +0.000 A 
ATOM      7  C   UNL     1      -2.784  -6.300  10.958  1.00  0.00    +0.000 A 
ATOM      8  C   UNL     1      -1.314  -6.255  10.665  1.00  0.00    +0.000 C 
ATOM      9  C   UNL     1      -3.706  -6.642   9.965  1.00  0.00    +0.000 A 
ATOM     10  C   UNL     1      -5.078  -6.695  10.231  1.00  0.00    +0.000 A 
ATOM     11  C   UNL     1      -5.567  -6.401  11.514  1.00  0.00    +0.000 A 
BRANCH   9  12
ATOM     12  O   UNL     1      -3.238  -6.934   8.714  1.00  0.00    +0.000 OA
ATOM     13  H   UNL     1      -2.297  -7.165   8.779  1.00  0.00    +0.000 HD
ENDBRANCH   9  12
BRANCH   5  14
ATOM     14  O   UNL     1      -5.035  -5.790  13.817  1.00  0.00    +0.000 OA
BRANCH  14  16
ATOM     15  C   UNL     1      -3.761  -4.396  15.210  1.00  0.00    +0.000 C 
ATOM     16  C   UNL     1      -3.996  -5.800  14.737  1.00  0.00    +0.000 C 
ATOM     17  O   UNL     1      -3.369  -6.772  15.135  1.00  0.00    +0.000 OA
ENDBRANCH  14  16
ENDBRANCH   5  14
ENDBRANCH   4  11
ENDBRANCH   1   4
BRANCH   2  18
ATOM     18  C   UNL     1      -9.265  -9.143   9.941  1.00  0.00    +0.000 C 
BRANCH  18  19
ATOM     19  C   UNL     1      -8.419 -10.297  10.490  1.00  0.00    +0.000 C 
BRANCH  19  20
ATOM     20  C   UNL     1      -7.271 -10.703   9.557  1.00  0.00    +0.000 C 
BRANCH  20  21
ATOM     21  C   UNL     1      -7.266 -12.168   9.161  1.00  0.00    +0.000 C 
ATOM     22  C   UNL     1      -8.630 -12.786   8.982  1.00  0.00    +0.000 C 
ATOM     23  C   UNL     1      -6.164 -12.903   8.916  1.00  0.00    +0.000 C 
BRANCH  23  24
ATOM     24  C   UNL     1      -4.754 -12.428   9.040  1.00  0.00    +0.000 C 
ATOM     25  O   UNL     1      -3.999 -12.405   8.072  1.00  0.00    +0.000 OA
BRANCH  24  26
ATOM     26  C   UNL     1      -4.310 -11.957  10.412  1.00  0.00    +0.000 C 
BRANCH  26  27
ATOM     27  C   UNL     1      -3.945 -10.467  10.481  1.00  0.00    +0.000 C 
ATOM     28  C   UNL     1      -2.533 -10.184   9.968  1.00  0.00    +0.000 C 
ATOM     29  C   UNL     1      -4.133  -9.889  11.883  1.00  0.00    +0.000 C 
ENDBRANCH  26  27
ENDBRANCH  24  26
ENDBRANCH  23  24
ENDBRANCH  20  21
ENDBRANCH  19  20
ENDBRANCH  18  19
ENDBRANCH   2  18
TORSDOF 12
ENDMDL
