MODEL 1
REMARK VINA RESULT:    -9.168      0.000      0.000
REMARK INTER + INTRA:         -11.658
REMARK INTER:                 -11.312
REMARK INTRA:                  -0.346
REMARK UNBOUND:                -0.346
REMARK  Name = SANCDB01131.pdb
REMARK  7 active torsions:
REMARK  status: ('A' for Active; 'I' for Inactive)
REMARK    1  A    between atoms: C_1  and  O_2
REMARK    2  A    between atoms: O_2  and  C_3
REMARK    3  A    between atoms: C_4  and  O_5
REMARK    4  A    between atoms: C_9  and  C_13
REMARK    5  A    between atoms: C_15  and  O_16
REMARK    6  A    between atoms: C_17  and  O_18
REMARK    7  A    between atoms: C_22  and  O_23
REMARK                            x       y       z     vdW  Elec       q    Type
REMARK                         _______ _______ _______ _____ _____    ______ ____
ROOT
ATOM      1  C   UNL     1      -4.006 -13.811   9.192  1.00  0.00    +0.000 A 
ATOM      2  C   UNL     1      -5.404 -13.634   9.129  1.00  0.00    +0.000 A 
ATOM      3  C   UNL     1      -5.998 -12.397   9.397  1.00  0.00    +0.000 A 
ATOM      4  C   UNL     1      -5.178 -11.321   9.733  1.00  0.00    +0.000 A 
ATOM      5  O   UNL     1      -5.654 -10.063  10.014  1.00  0.00    +0.000 OA
ATOM      6  C   UNL     1      -7.018  -9.849   9.969  1.00  0.00    +0.000 A 
ATOM      7  C   UNL     1      -7.914 -10.793   9.651  1.00  0.00    +0.000 A 
ATOM      8  C   UNL     1      -7.458 -12.161   9.344  1.00  0.00    +0.000 A 
ATOM      9  O   UNL     1      -8.297 -13.011   9.076  1.00  0.00    +0.000 OA
ATOM     10  C   UNL     1      -3.790 -11.474   9.800  1.00  0.00    +0.000 A 
ATOM     11  C   UNL     1      -3.205 -12.714   9.532  1.00  0.00    +0.000 A 
ENDROOT
BRANCH   6  12
ATOM     12  C   UNL     1      -7.426  -8.466  10.282  1.00  0.00    +0.000 A 
ATOM     13  C   UNL     1      -6.578  -7.597  10.990  1.00  0.00    +0.000 A 
ATOM     14  C   UNL     1      -6.990  -6.295  11.256  1.00  0.00    +0.000 A 
ATOM     15  C   UNL     1      -8.233  -5.845  10.820  1.00  0.00    +0.000 A 
ATOM     16  C   UNL     1      -9.081  -6.683  10.115  1.00  0.00    +0.000 A 
ATOM     17  C   UNL     1      -8.676  -7.992   9.843  1.00  0.00    +0.000 A 
BRANCH  14  18
ATOM     18  O   UNL     1      -6.202  -5.411  11.941  1.00  0.00    +0.000 OA
ATOM     19  H   UNL     1      -6.402  -4.512  11.627  1.00  0.00    +0.000 HD
ENDBRANCH  14  18
BRANCH  15  20
ATOM     20  O   UNL     1      -8.628  -4.566  11.085  1.00  0.00    +0.000 OA
ATOM     21  H   UNL     1      -9.011  -4.608  11.984  1.00  0.00    +0.000 HD
ENDBRANCH  15  20
ENDBRANCH   6  12
BRANCH   1  23
ATOM     22  C   UNL     1      -3.338 -15.980   9.973  1.00  0.00    +0.000 C 
ATOM     23  O   UNL     1      -3.612 -15.093   8.897  1.00  0.00    +0.000 OA
ENDBRANCH   1  23
BRANCH   2  24
ATOM     24  O   UNL     1      -6.169 -14.724   8.795  1.00  0.00    +0.000 OA
ATOM     25  H   UNL     1      -5.953 -14.931   7.864  1.00  0.00    +0.000 HD
ENDBRANCH   2  24
BRANCH  11  26
ATOM     26  O   UNL     1      -1.845 -12.818   9.612  1.00  0.00    +0.000 OA
ATOM     27  H   UNL     1      -1.588 -13.102  10.505  1.00  0.00    +0.000 HD
ENDBRANCH  11  26
TORSDOF 6
ENDMDL
