MODEL 1
REMARK VINA RESULT:    -7.832      0.000      0.000
REMARK INTER + INTRA:          -7.467
REMARK INTER:                  -8.290
REMARK INTRA:                   0.823
REMARK UNBOUND:                 0.823
REMARK  Name = SANCDB01003.pdb
REMARK  8 active torsions:
REMARK  status: ('A' for Active; 'I' for Inactive)
REMARK    1  A    between atoms: C_1  and  C_2
REMARK    2  A    between atoms: C_2  and  C_4
REMARK    3  A    between atoms: C_7  and  C_31
REMARK    4  A    between atoms: C_13  and  C_30
REMARK    5  A    between atoms: C_18  and  C_28
REMARK    6  A    between atoms: C_18  and  C_29
REMARK    7  A    between atoms: C_22  and  C_27
REMARK    8  A    between atoms: C_23  and  C_26
REMARK                            x       y       z     vdW  Elec       q    Type
REMARK                         _______ _______ _______ _____ _____    ______ ____
ROOT
ATOM      1  C   UNL     1      -1.965  -5.314  12.996  1.00  0.00    +0.000 C 
ATOM      2  C   UNL     1      -0.805  -4.288  12.863  1.00  0.00    +0.000 C 
ATOM      3  C   UNL     1      -0.031  -4.660  11.588  1.00  0.00    +0.000 C 
ATOM      4  C   UNL     1      -0.393  -6.130  11.338  1.00  0.00    +0.000 C 
ATOM      5  C   UNL     1      -1.907  -6.100  11.665  1.00  0.00    +0.000 C 
ATOM      6  C   UNL     1      -2.524  -7.512  11.557  1.00  0.00    +0.000 C 
ATOM      7  C   UNL     1      -3.986  -7.590  12.014  1.00  0.00    +0.000 C 
ATOM      8  C   UNL     1      -4.557  -9.009  11.941  1.00  0.00    +0.000 C 
ATOM      9  C   UNL     1      -4.378  -9.676  10.558  1.00  0.00    +0.000 C 
ATOM     10  C   UNL     1      -5.152 -11.063  10.381  1.00  0.00    +0.000 C 
ATOM     11  C   UNL     1      -6.678 -10.814  10.590  1.00  0.00    +0.000 C 
ATOM     12  C   UNL     1      -7.571 -11.986  10.201  1.00  0.00    +0.000 C 
ATOM     13  C   UNL     1      -7.295 -12.463   8.796  1.00  0.00    +0.000 C 
ATOM     14  O   UNL     1      -8.236 -12.709   8.040  1.00  0.00    +0.000 OA
ATOM     15  C   UNL     1      -5.831 -12.729   8.406  1.00  0.00    +0.000 C 
ATOM     16  C   UNL     1      -4.961 -11.516   8.884  1.00  0.00    +0.000 C 
ATOM     17  C   UNL     1      -3.467 -11.626   8.522  1.00  0.00    +0.000 C 
ATOM     18  C   UNL     1      -2.754 -10.280   8.682  1.00  0.00    +0.000 C 
ATOM     19  C   UNL     1      -2.864  -9.648  10.098  1.00  0.00    +0.000 C 
ATOM     20  C   UNL     1      -2.343  -8.104  10.098  1.00  0.00    +0.000 C 
ATOM     21  C   UNL     1      -0.841  -7.979   9.651  1.00  0.00    +0.000 C 
ATOM     22  C   UNL     1      -0.206  -6.594   9.888  1.00  0.00    +0.000 C 
ATOM     23  C   UNL     1      -3.148  -7.243   9.064  1.00  0.00    +0.000 C 
ATOM     24  C   UNL     1      -1.970 -10.509  11.040  1.00  0.00    +0.000 C 
ATOM     25  C   UNL     1      -5.772 -12.841   6.861  1.00  0.00    +0.000 C 
ATOM     26  C   UNL     1      -5.416 -14.095   8.971  1.00  0.00    +0.000 C 
ATOM     27  C   UNL     1      -4.699 -12.119  11.417  1.00  0.00    +0.000 C 
ATOM     28  C   UNL     1       0.468  -7.013  12.279  1.00  0.00    +0.000 C 
ENDROOT
BRANCH   1  30
ATOM     29  C   UNL     1      -3.242  -3.347  14.127  1.00  0.00    +0.000 C 
ATOM     30  C   UNL     1      -3.279  -4.633  13.345  1.00  0.00    +0.000 C 
ATOM     31  C   UNL     1      -4.454  -5.178  12.984  1.00  0.00    +0.000 C 
ENDBRANCH   1  30
TORSDOF 1
ENDMDL
