MODEL 1
REMARK VINA RESULT:    -7.243      0.000      0.000
REMARK INTER + INTRA:         -11.165
REMARK INTER:                 -10.207
REMARK INTRA:                  -0.957
REMARK UNBOUND:                -0.957
REMARK  Name = 
REMARK  12 active torsions:
REMARK  status: ('A' for Active; 'I' for Inactive)
REMARK    1  A    between atoms: O_1  and  C_2
REMARK    2  A    between atoms: C_3  and  O_4
REMARK    3  A    between atoms: C_5  and  O_6
REMARK    4  A    between atoms: O_6  and  C_7
REMARK    5  A    between atoms: C_13  and  C_14
REMARK    6  A    between atoms: C_15  and  C_16
REMARK    7  A    between atoms: C_18  and  O_19
REMARK    8  A    between atoms: O_19  and  C_20
REMARK    9  A    between atoms: C_24  and  O_25
REMARK   10  A    between atoms: O_25  and  C_26
REMARK   11  A    between atoms: C_30  and  O_31
REMARK   12  A    between atoms: O_31  and  C_32
REMARK                            x       y       z     vdW  Elec       q    Type
REMARK                         _______ _______ _______ _____ _____    ______ ____
ROOT
ATOM      1  C   UNL     1      -2.682  -8.400   9.999  1.00  0.00    +0.000 C 
ATOM      2  C   UNL     1      -3.685  -8.882   9.245  1.00  0.00    +0.000 C 
ENDROOT
BRANCH   1   8
ATOM      3  C   UNL     1      -2.516  -6.328  11.376  1.00  0.00    +0.000 A 
ATOM      4  C   UNL     1      -2.612  -5.667  12.601  1.00  0.00    +0.000 A 
ATOM      5  C   UNL     1      -2.968  -6.345  13.769  1.00  0.00    +0.000 A 
ATOM      6  C   UNL     1      -3.221  -7.712  13.694  1.00  0.00    +0.000 A 
ATOM      7  C   UNL     1      -3.124  -8.381  12.463  1.00  0.00    +0.000 A 
ATOM      8  C   UNL     1      -2.789  -7.694  11.286  1.00  0.00    +0.000 A 
BRANCH   3   9
ATOM      9  O   UNL     1      -2.161  -5.604  10.268  1.00  0.00    +0.000 OA
ATOM     10  H   UNL     1      -1.508  -4.954  10.599  1.00  0.00    +0.000 HD
ENDBRANCH   3   9
BRANCH   4  11
ATOM     11  O   UNL     1      -2.345  -4.320  12.628  1.00  0.00    +0.000 OA
ATOM     12  H   UNL     1      -1.891  -4.144  11.779  1.00  0.00    +0.000 HD
ENDBRANCH   4  11
BRANCH   5  13
ATOM     13  O   UNL     1      -3.026  -5.566  14.896  1.00  0.00    +0.000 OA
ATOM     14  C   UNL     1      -4.324  -5.161  15.318  1.00  0.00    +0.000 C 
ENDBRANCH   5  13
ENDBRANCH   1   8
BRANCH   2  15
ATOM     15  C   UNL     1      -5.125  -8.771   9.515  1.00  0.00    +0.000 A 
ATOM     16  C   UNL     1      -5.787  -7.538   9.434  1.00  0.00    +0.000 A 
ATOM     17  C   UNL     1      -7.159  -7.445   9.684  1.00  0.00    +0.000 A 
ATOM     18  C   UNL     1      -7.880  -8.615   9.984  1.00  0.00    +0.000 A 
ATOM     19  C   UNL     1      -7.221  -9.848  10.095  1.00  0.00    +0.000 A 
ATOM     20  C   UNL     1      -5.852  -9.923   9.828  1.00  0.00    +0.000 A 
BRANCH  17  21
ATOM     21  O   UNL     1      -7.881  -6.279   9.637  1.00  0.00    +0.000 OA
ATOM     22  C   UNL     1      -7.865  -5.463  10.802  1.00  0.00    +0.000 C 
ENDBRANCH  17  21
BRANCH  18  23
ATOM     23  O   UNL     1      -9.236  -8.533  10.197  1.00  0.00    +0.000 OA
ATOM     24  C   UNL     1      -9.931  -8.953   9.022  1.00  0.00    +0.000 C 
ENDBRANCH  18  23
BRANCH  19  25
ATOM     25  O   UNL     1      -7.817 -11.045  10.395  1.00  0.00    +0.000 OA
ATOM     26  C   UNL     1      -7.824 -11.981   9.319  1.00  0.00    +0.000 C 
ENDBRANCH  19  25
ENDBRANCH   2  15
TORSDOF 8
ENDMDL
