MODEL 1
REMARK VINA RESULT:   -10.821      0.000      0.000
REMARK INTER + INTRA:         -15.472
REMARK INTER:                 -14.616
REMARK INTRA:                  -0.856
REMARK UNBOUND:                -0.856
REMARK  Name = [H][C@]3(Sc1ncn(C)c1C[C@@H](N)C(=O)O)[C@@H]5C(=O)C=C2S[C@@H]4C[C@]23c6c(N4)c...
REMARK  8 active torsions:
REMARK  status: ('A' for Active; 'I' for Inactive)
REMARK    1  A    between atoms: C_2  and  N_35
REMARK    2  A    between atoms: N_3  and  CA_32
REMARK    3  A    between atoms: OXT_7  and  C_20
REMARK    4  A    between atoms: C_13  and  C_25
REMARK    5  A    between atoms: C_13  and  CA_32
REMARK    6  A    between atoms: S_19  and  C_24
REMARK    7  A    between atoms: S_19  and  C_37
REMARK    8  A    between atoms: C_20  and  CA_32
REMARK                            x       y       z     vdW  Elec       q    Type
REMARK                         _______ _______ _______ _____ _____    ______ ____
ROOT
ATOM      1  O   UNL     1      -4.473  -6.450   8.517  1.00  0.00    +0.000 OA
ATOM      2  O   UNL     1      -8.152 -12.706   9.055  1.00  0.00    +0.000 OA
ATOM      3  C   UNL     1      -3.556  -8.585   8.846  1.00  0.00    +0.000 C 
ATOM      4  C   UNL     1     -10.299  -8.913   9.201  1.00  0.00    +0.000 A 
ATOM      5  C   UNL     1      -8.901  -6.817  10.047  1.00  0.00    +0.000 C 
ATOM      6  C   UNL     1      -7.376  -6.489   9.967  1.00  0.00    +0.000 C 
ATOM      7  C   UNL     1      -4.004 -11.110  11.474  1.00  0.00    +0.000 C 
ATOM      8  N   UNL     1      -5.466 -12.372  10.030  1.00  0.00    +0.000 N 
ATOM      9  N   UNL     1      -9.952 -10.251   9.042  1.00  0.00    +0.000 N 
ATOM     10  S   UNL     1      -3.173 -11.288   8.989  1.00  0.00    +0.000 S 
ATOM     11  C   UNL     1      -4.297  -7.376   9.309  1.00  0.00    +0.000 C 
ATOM     12  C   UNL     1      -3.727  -9.720   9.530  1.00  0.00    +0.000 C 
ATOM     13  C   UNL     1      -9.193  -8.227   9.652  1.00  0.00    +0.000 A 
ATOM     14  C   UNL     1      -6.390 -11.331   9.971  1.00  0.00    +0.000 C 
ATOM     15  C   UNL     1      -5.999 -10.084  10.335  1.00  0.00    +0.000 C 
ATOM     16  C   UNL     1      -7.805 -11.594   9.427  1.00  0.00    +0.000 C 
ATOM     17  C   UNL     1      -6.858  -8.880  10.171  1.00  0.00    +0.000 C 
ATOM     18  C   UNL     1      -8.638 -10.416   9.404  1.00  0.00    +0.000 A 
ATOM     19  C   UNL     1      -8.181  -9.179   9.761  1.00  0.00    +0.000 A 
ATOM     20  C   UNL     1      -4.057 -12.163  10.356  1.00  0.00    +0.000 C 
ATOM     21  C   UNL     1      -5.004  -7.393  10.676  1.00  0.00    +0.000 C 
ATOM     22  N   UNL     1      -6.462  -7.663  10.338  1.00  0.00    +0.000 N 
ATOM     23  C   UNL     1      -4.534  -8.530  11.619  1.00  0.00    +0.000 C 
ATOM     24  C   UNL     1      -4.559  -9.837  10.794  1.00  0.00    +0.000 C 
ATOM     25  H   UNL     1      -5.691 -13.170   9.429  1.00  0.00    +0.000 HD
ATOM     26  H   UNL     1     -10.570 -10.991   8.722  1.00  0.00    +0.000 HD
ENDROOT
BRANCH  23  27
ATOM     27  S   UNL     1      -3.040  -8.253  12.640  1.00  0.00    +0.000 S 
BRANCH  27  31
ATOM     28  C   UNL     1      -2.340  -3.177  13.842  1.00  0.00    +0.000 C 
ATOM     29  C   UNL     1      -4.094  -4.910  14.065  1.00  0.00    +0.000 A 
ATOM     30  N   UNL     1      -4.331  -6.167  13.760  1.00  0.00    +0.000 NA
ATOM     31  C   UNL     1      -3.184  -6.609  13.173  1.00  0.00    +0.000 A 
ATOM     32  C   UNL     1      -2.228  -5.616  13.100  1.00  0.00    +0.000 A 
ATOM     33  N   UNL     1      -2.843  -4.520  13.666  1.00  0.00    +0.000 N 
BRANCH  32  34
ATOM     34  C   UNL     1      -0.832  -5.645  12.545  1.00  0.00    +0.000 C 
BRANCH  34  35
ATOM     35  CA  UNL     1      -0.754  -5.171  11.081  1.00  0.00    +0.000 C 
BRANCH  35  36
ATOM     36  N   UNL     1      -2.086  -5.328  10.443  1.00  0.00    +0.000 NA
ATOM     37  H1  UNL     1      -2.079  -6.157   9.850  1.00  0.00    +0.000 HD
ATOM     38  H2  UNL     1      -2.214  -4.534   9.806  1.00  0.00    +0.000 HD
ENDBRANCH  35  36
BRANCH  35  40
ATOM     39  O   UNL     1       0.684  -3.192  11.462  1.00  0.00    +0.000 OA
ATOM     40  C   UNL     1      -0.319  -3.701  10.988  1.00  0.00    +0.000 C 
BRANCH  40  41
ATOM     41  OXT UNL     1      -1.169  -2.961  10.237  1.00  0.00    +0.000 OA
ATOM     42  HXT UNL     1      -2.046  -3.093  10.655  1.00  0.00    +0.000 HD
ENDBRANCH  40  41
ENDBRANCH  35  40
ENDBRANCH  34  35
ENDBRANCH  32  34
ENDBRANCH  27  31
ENDBRANCH  23  27
TORSDOF 7
ENDMDL
