MODEL 1
REMARK VINA RESULT:    -9.952      0.000      0.000
REMARK INTER + INTRA:         -13.977
REMARK INTER:                 -13.443
REMARK INTRA:                  -0.534
REMARK UNBOUND:                -0.534
REMARK  Name = C[C@@H]3CC[C@H](OC(=O)c1ccoc1)[C@@]4(C)[C@@H](OC(=O)c2ccoc2)C[C@H]5C[C@]34OC...
REMARK  10 active torsions:
REMARK  status: ('A' for Active; 'I' for Inactive)
REMARK    1  A    between atoms: C_1  and  C_26
REMARK    2  A    between atoms: C_2  and  C_30
REMARK    3  A    between atoms: C_3  and  C_30
REMARK    4  A    between atoms: C_4  and  C_31
REMARK    5  A    between atoms: O_17  and  C_22
REMARK    6  A    between atoms: O_17  and  C_28
REMARK    7  A    between atoms: O_18  and  C_23
REMARK    8  A    between atoms: O_18  and  C_29
REMARK    9  A    between atoms: C_22  and  C_24
REMARK   10  A    between atoms: C_23  and  C_25
REMARK                            x       y       z     vdW  Elec       q    Type
REMARK                         _______ _______ _______ _____ _____    ______ ____
ROOT
ATOM      1  C   UNL     1      -4.522 -12.002   9.039  1.00  0.00    +0.000 C 
ATOM      2  C   UNL     1      -1.099 -10.961  11.118  1.00  0.00    +0.000 C 
ATOM      3  C   UNL     1      -1.144  -8.837  12.354  1.00  0.00    +0.000 C 
ATOM      4  C   UNL     1      -5.266  -7.954   8.737  1.00  0.00    +0.000 C 
ATOM      5  C   UNL     1      -6.366 -10.638  10.000  1.00  0.00    +0.000 C 
ATOM      6  C   UNL     1      -6.858  -9.472  10.848  1.00  0.00    +0.000 C 
ATOM      7  C   UNL     1      -2.246  -7.364   9.901  1.00  0.00    +0.000 C 
ATOM      8  C   UNL     1      -2.794  -9.640   9.067  1.00  0.00    +0.000 C 
ATOM      9  O   UNL     1      -3.193  -9.801  11.401  1.00  0.00    +0.000 OA
ATOM     10  C   UNL     1      -4.863 -10.948  10.100  1.00  0.00    +0.000 C 
ATOM     11  C   UNL     1      -1.759  -8.834   9.838  1.00  0.00    +0.000 C 
ATOM     12  C   UNL     1      -5.797  -8.424  11.195  1.00  0.00    +0.000 C 
ATOM     13  C   UNL     1      -3.674  -7.150  10.472  1.00  0.00    +0.000 C 
ATOM     14  C   UNL     1      -1.784  -9.578  11.179  1.00  0.00    +0.000 C 
ATOM     15  C   UNL     1      -4.669  -8.318  10.130  1.00  0.00    +0.000 C 
ATOM     16  C   UNL     1      -3.917  -9.700  10.115  1.00  0.00    +0.000 C 
ENDROOT
BRANCH  12  17
ATOM     17  O   UNL     1      -6.434  -7.136  11.348  1.00  0.00    +0.000 OA
BRANCH  17  19
ATOM     18  O   UNL     1      -8.296  -7.677  12.575  1.00  0.00    +0.000 OA
ATOM     19  C   UNL     1      -7.776  -7.150  11.599  1.00  0.00    +0.000 C 
BRANCH  19  24
ATOM     20  C   UNL     1      -9.802  -5.930   8.808  1.00  0.00    +0.000 A 
ATOM     21  C   UNL     1      -9.220  -6.988   9.464  1.00  0.00    +0.000 A 
ATOM     22  C   UNL     1      -8.766  -5.082  10.530  1.00  0.00    +0.000 A 
ATOM     23  O   UNL     1      -9.528  -4.767   9.452  1.00  0.00    +0.000 OA
ATOM     24  C   UNL     1      -8.537  -6.443  10.590  1.00  0.00    +0.000 A 
ENDBRANCH  19  24
ENDBRANCH  17  19
ENDBRANCH  12  17
BRANCH  13  25
ATOM     25  O   UNL     1      -3.615  -6.944  11.898  1.00  0.00    +0.000 OA
BRANCH  25  27
ATOM     26  O   UNL     1      -1.970  -5.354  11.744  1.00  0.00    +0.000 OA
ATOM     27  C   UNL     1      -2.917  -5.858  12.337  1.00  0.00    +0.000 C 
BRANCH  27  32
ATOM     28  C   UNL     1      -4.526  -5.075  15.528  1.00  0.00    +0.000 A 
ATOM     29  C   UNL     1      -4.365  -5.942  14.474  1.00  0.00    +0.000 A 
ATOM     30  C   UNL     1      -3.084  -4.139  14.185  1.00  0.00    +0.000 A 
ATOM     31  O   UNL     1      -3.750  -3.975  15.358  1.00  0.00    +0.000 OA
ATOM     32  C   UNL     1      -3.426  -5.338  13.589  1.00  0.00    +0.000 A 
ENDBRANCH  27  32
ENDBRANCH  25  27
ENDBRANCH  13  25
TORSDOF 6
ENDMDL
