MODEL 1
REMARK VINA RESULT:    -7.844      0.000      0.000
REMARK INTER + INTRA:         -13.520
REMARK INTER:                 -12.429
REMARK INTRA:                  -1.091
REMARK UNBOUND:                -1.091
REMARK  Name = 
REMARK  14 active torsions:
REMARK  status: ('A' for Active; 'I' for Inactive)
REMARK    1  A    between atoms: C_1  and  C_2
REMARK    2  A    between atoms: C_2  and  C_3
REMARK    3  A    between atoms: C_3  and  C_4
REMARK    4  A    between atoms: C_4  and  C_5
REMARK    5  A    between atoms: C_5  and  C_6
REMARK    6  A    between atoms: C_6  and  C_7
REMARK    7  A    between atoms: C_7  and  C_8
REMARK    8  A    between atoms: C_9  and  O_10
REMARK    9  A    between atoms: C_12  and  C_13
REMARK   10  A    between atoms: C_13  and  C_14
REMARK   11  A    between atoms: C_15  and  C_16
REMARK   12  A    between atoms: C_15  and  C_17
REMARK   13  A    between atoms: C_18  and  O_19
REMARK   14  A    between atoms: C_20  and  C_21
REMARK                            x       y       z     vdW  Elec       q    Type
REMARK                         _______ _______ _______ _____ _____    ______ ____
ROOT
ATOM      1  C   UNL     1      -6.270 -12.237   9.005  1.00  0.00    +0.000 A 
ATOM      2  C   UNL     1      -7.673 -12.192   9.061  1.00  0.00    +0.000 A 
ATOM      3  C   UNL     1      -8.352 -11.122   9.641  1.00  0.00    +0.000 A 
ATOM      4  C   UNL     1      -7.654 -10.052  10.212  1.00  0.00    +0.000 A 
ATOM      5  C   UNL     1      -6.255 -10.093  10.203  1.00  0.00    +0.000 A 
ATOM      6  C   UNL     1      -5.561 -11.173   9.612  1.00  0.00    +0.000 A 
ENDROOT
BRANCH   2   7
ATOM      7  O   UNL     1      -8.474 -13.180   8.558  1.00  0.00    +0.000 OA
ATOM      8  H   UNL     1      -7.944 -13.809   8.044  1.00  0.00    +0.000 HD
ENDBRANCH   2   7
BRANCH   5   9
ATOM      9  O   UNL     1      -5.601  -9.042  10.799  1.00  0.00    +0.000 OA
ATOM     10  H   UNL     1      -6.088  -8.212  10.595  1.00  0.00    +0.000 HD
ENDBRANCH   5   9
BRANCH   6  11
ATOM     11  C   UNL     1      -4.076 -11.170   9.656  1.00  0.00    +0.000 C 
ATOM     12  O   UNL     1      -3.425 -10.225   9.216  1.00  0.00    +0.000 OA
ENDBRANCH   6  11
BRANCH   1  13
ATOM     13  C   UNL     1      -5.569 -13.387   8.311  1.00  0.00    +0.000 C 
BRANCH  13  14
ATOM     14  C   UNL     1      -5.283 -14.545   9.272  1.00  0.00    +0.000 C 
BRANCH  14  15
ATOM     15  C   UNL     1      -3.888 -15.127   9.031  1.00  0.00    +0.000 C 
BRANCH  15  16
ATOM     16  C   UNL     1      -3.447 -16.123  10.110  1.00  0.00    +0.000 C 
BRANCH  16  17
ATOM     17  C   UNL     1      -3.034 -17.485   9.546  1.00  0.00    +0.000 C 
BRANCH  17  19
ATOM     18  C   UNL     1      -5.318 -18.509  10.054  1.00  0.00    +0.000 C 
ATOM     19  C   UNL     1      -3.808 -18.654  10.160  1.00  0.00    +0.000 C 
ENDBRANCH  17  19
ENDBRANCH  16  17
ENDBRANCH  15  16
ENDBRANCH  14  15
ENDBRANCH  13  14
ENDBRANCH   1  13
BRANCH   4  20
ATOM     20  C   UNL     1      -8.424  -8.921  10.854  1.00  0.00    +0.000 C 
BRANCH  20  21
ATOM     21  C   UNL     1      -9.059  -8.015   9.833  1.00  0.00    +0.000 C 
ATOM     22  C   UNL     1      -9.120  -6.668   9.829  1.00  0.00    +0.000 C 
ATOM     23  C   UNL     1      -8.515  -5.768  10.870  1.00  0.00    +0.000 C 
ATOM     24  C   UNL     1      -9.829  -5.939   8.718  1.00  0.00    +0.000 C 
ENDBRANCH  20  21
ENDBRANCH   4  20
TORSDOF 11
ENDMDL
