MODEL 1
REMARK VINA RESULT:    -8.963      0.000      0.000
REMARK INTER + INTRA:         -10.069
REMARK INTER:                 -10.011
REMARK INTRA:                  -0.058
REMARK UNBOUND:                -0.058
REMARK  Name = 
REMARK  5 active torsions:
REMARK  status: ('A' for Active; 'I' for Inactive)
REMARK    1  A    between atoms: C_1  and  O_2
REMARK    2  A    between atoms: O_2  and  C_3
REMARK    3  A    between atoms: C_5  and  O_6
REMARK    4  A    between atoms: C_11  and  O_12
REMARK    5  A    between atoms: C_14  and  C_15
REMARK                            x       y       z     vdW  Elec       q    Type
REMARK                         _______ _______ _______ _____ _____    ______ ____
ROOT
ATOM      1  C   UNL     1      -2.350  -8.030  12.699  1.00  0.00    +0.000 A 
ATOM      2  C   UNL     1      -2.633  -6.694  12.973  1.00  0.00    +0.000 A 
ATOM      3  C   UNL     1      -3.867  -6.153  12.607  1.00  0.00    +0.000 A 
ATOM      4  C   UNL     1      -4.832  -6.936  11.962  1.00  0.00    +0.000 A 
ATOM      5  C   UNL     1      -6.136  -6.369  11.573  1.00  0.00    +0.000 C 
ATOM      6  O   UNL     1      -6.387  -5.189  11.816  1.00  0.00    +0.000 OA
ATOM      7  C   UNL     1      -7.137  -7.212  10.894  1.00  0.00    +0.000 A 
ATOM      8  C   UNL     1      -8.382  -6.691  10.521  1.00  0.00    +0.000 A 
ATOM      9  C   UNL     1      -9.324  -7.494   9.880  1.00  0.00    +0.000 A 
ATOM     10  C   UNL     1      -9.033  -8.833   9.590  1.00  0.00    +0.000 A 
ATOM     11  C   UNL     1     -10.058  -9.707   8.930  1.00  0.00    +0.000 C 
ATOM     12  C   UNL     1      -7.794  -9.358   9.976  1.00  0.00    +0.000 A 
ATOM     13  C   UNL     1      -6.847  -8.547  10.621  1.00  0.00    +0.000 A 
ATOM     14  C   UNL     1      -5.545  -9.125  11.010  1.00  0.00    +0.000 C 
ATOM     15  O   UNL     1      -5.293 -10.300  10.772  1.00  0.00    +0.000 OA
ATOM     16  C   UNL     1      -4.548  -8.272  11.688  1.00  0.00    +0.000 A 
ATOM     17  C   UNL     1      -3.310  -8.816  12.057  1.00  0.00    +0.000 A 
ENDROOT
BRANCH   1  19
ATOM     18  C   UNL     1      -0.425  -9.183  11.910  1.00  0.00    +0.000 C 
ATOM     19  O   UNL     1      -1.188  -8.684  13.002  1.00  0.00    +0.000 OA
ENDBRANCH   1  19
BRANCH   3  20
ATOM     20  O   UNL     1      -4.060  -4.832  12.914  1.00  0.00    +0.000 OA
ATOM     21  H   UNL     1      -4.504  -4.395  12.153  1.00  0.00    +0.000 HD
ENDBRANCH   3  20
BRANCH   8  22
ATOM     22  O   UNL     1      -8.754  -5.394  10.756  1.00  0.00    +0.000 OA
ATOM     23  H   UNL     1      -9.596  -5.221  10.283  1.00  0.00    +0.000 HD
ENDBRANCH   8  22
TORSDOF 3
ENDMDL
