MODEL 1
REMARK VINA RESULT:    -7.044      0.000      0.000
REMARK INTER + INTRA:          -9.423
REMARK INTER:                  -8.691
REMARK INTRA:                  -0.732
REMARK UNBOUND:                -0.732
REMARK  Name = 
REMARK  5 active torsions:
REMARK  status: ('A' for Active; 'I' for Inactive)
REMARK    1  A    between atoms: C_7  and  C_9
REMARK    2  A    between atoms: C_9  and  C_10
REMARK    3  A    between atoms: C_18  and  C_20
REMARK    4  A    between atoms: C_20  and  C_21
REMARK    5  A    between atoms: C_22  and  C_23
REMARK                            x       y       z     vdW  Elec       q    Type
REMARK                         _______ _______ _______ _____ _____    ______ ____
ROOT
ATOM      1  C   UNL     1      -3.809  -9.748  10.873  1.00  0.00    +0.000 C 
ATOM      2  C   UNL     1      -5.036 -10.352  11.527  1.00  0.00    +0.000 C 
ATOM      3  C   UNL     1      -6.129  -9.807  10.637  1.00  0.00    +0.000 C 
ATOM      4  O   UNL     1      -6.106 -10.334   9.305  1.00  0.00    +0.000 OA
ATOM      5  C   UNL     1      -6.191 -11.740   9.069  1.00  0.00    +0.000 C 
ATOM      6  C   UNL     1      -4.905 -12.518   9.434  1.00  0.00    +0.000 C 
ATOM      7 BR   UNL     1      -4.856 -14.206   8.364  1.00  0.00    +0.000 Br
ATOM      8  C   UNL     1      -3.531 -11.841   9.251  1.00  0.00    +0.000 C 
ATOM      9  C   UNL     1      -3.403 -10.333   9.500  1.00  0.00    +0.000 C 
ATOM     10 BR   UNL     1      -1.476  -9.875   9.217  1.00  0.00    +0.000 Br
ATOM     11  C   UNL     1      -5.670  -8.331  10.598  1.00  0.00    +0.000 C 
ATOM     12  O   UNL     1      -4.212  -8.368  10.653  1.00  0.00    +0.000 OA
ENDROOT
BRANCH   5  13
ATOM     13  C   UNL     1      -7.457 -12.353   9.703  1.00  0.00    +0.000 C 
ATOM     14  C   UNL     1      -8.641 -12.372   8.743  1.00  0.00    +0.000 C 
ENDBRANCH   5  13
BRANCH  11  15
ATOM     15  C   UNL     1      -6.110  -7.500   9.391  1.00  0.00    +0.000 C 
BRANCH  15  16
ATOM     16  C   UNL     1      -7.108  -6.427   9.735  1.00  0.00    +0.000 C 
ATOM     17  C   UNL     1      -8.438  -6.568   9.835  1.00  0.00    +0.000 C 
BRANCH  17  18
ATOM     18  C   UNL     1      -9.118  -7.789   9.587  1.00  0.00    +0.000 C 
ATOM     19  C   UNL     1      -9.696  -8.819   9.377  1.00  0.00    +0.000 C 
ENDBRANCH  17  18
ENDBRANCH  15  16
ENDBRANCH  11  15
TORSDOF 4
ENDMDL
