MODEL 1
REMARK VINA RESULT:    -6.673      0.000      0.000
REMARK INTER + INTRA:          -8.993
REMARK INTER:                  -8.623
REMARK INTRA:                  -0.370
REMARK UNBOUND:                -0.370
REMARK  Name = 
REMARK  7 active torsions:
REMARK  status: ('A' for Active; 'I' for Inactive)
REMARK    1  A    between atoms: C_1  and  C_2
REMARK    2  A    between atoms: C_2  and  C_7
REMARK    3  A    between atoms: C_3  and  C_4
REMARK    4  A    between atoms: C_7  and  C_9
REMARK    5  A    between atoms: C_10  and  C_11
REMARK    6  A    between atoms: C_11  and  C_12
REMARK    7  A    between atoms: C_11  and  C_14
REMARK                            x       y       z     vdW  Elec       q    Type
REMARK                         _______ _______ _______ _____ _____    ______ ____
ROOT
ATOM      1  C   UNL     1      -5.823 -10.967  10.292  1.00  0.00    +0.000 C 
ATOM      2 BR   UNL     1      -4.364  -9.880   9.571  1.00  0.00    +0.000 Br
ENDROOT
BRANCH   1   4
ATOM      3  C   UNL     1      -7.231 -12.458   8.814  1.00  0.00    +0.000 C 
ATOM      4  C   UNL     1      -5.892 -12.253   9.479  1.00  0.00    +0.000 C 
ATOM      5  C   UNL     1      -4.849 -13.106   9.349  1.00  0.00    +0.000 C 
BRANCH   5   6
ATOM      6  C   UNL     1      -4.768 -14.392   8.581  1.00  0.00    +0.000 C 
ATOM      7 CL   UNL     1      -3.055 -14.829   8.373  1.00  0.00    +0.000 Cl
ATOM      8 CL   UNL     1      -5.615 -15.671   9.481  1.00  0.00    +0.000 Cl
ENDBRANCH   5   6
ENDBRANCH   1   4
BRANCH   1   9
ATOM      9  C   UNL     1      -7.074 -10.131  10.273  1.00  0.00    +0.000 C 
ATOM     10  C   UNL     1      -7.087  -8.801  10.488  1.00  0.00    +0.000 C 
BRANCH  10  11
ATOM     11  C   UNL     1      -8.293  -7.871  10.484  1.00  0.00    +0.000 C 
ATOM     12  C   UNL     1      -9.424  -8.580   9.720  1.00  0.00    +0.000 C 
ATOM     13 CL   UNL     1      -8.847  -7.713  12.203  1.00  0.00    +0.000 Cl
BRANCH  11  14
ATOM     14  C   UNL     1      -8.103  -6.469   9.877  1.00  0.00    +0.000 C 
ATOM     15 BR   UNL     1      -9.684  -5.769   8.964  1.00  0.00    +0.000 Br
ENDBRANCH  11  14
ENDBRANCH  10  11
ENDBRANCH   1   9
TORSDOF 5
ENDMDL
