MODEL 1
REMARK VINA RESULT:    -8.508      0.000      0.000
REMARK INTER + INTRA:         -11.694
REMARK INTER:                 -11.493
REMARK INTRA:                  -0.201
REMARK UNBOUND:                -0.201
REMARK  Name = CC3=CC(=O)[C@H](OC(=O)c1ccoc1)[C@@]4(C)[C@@H](OC(=O)c2ccoc2)C[C@H]5C[C@]34OC...
REMARK  10 active torsions:
REMARK  status: ('A' for Active; 'I' for Inactive)
REMARK    1  A    between atoms: C_1  and  C_22
REMARK    2  A    between atoms: C_2  and  C_31
REMARK    3  A    between atoms: C_3  and  C_31
REMARK    4  A    between atoms: C_4  and  C_32
REMARK    5  A    between atoms: O_17  and  C_24
REMARK    6  A    between atoms: O_17  and  C_29
REMARK    7  A    between atoms: O_18  and  C_25
REMARK    8  A    between atoms: O_18  and  C_30
REMARK    9  A    between atoms: C_24  and  C_26
REMARK   10  A    between atoms: C_25  and  C_27
REMARK                            x       y       z     vdW  Elec       q    Type
REMARK                         _______ _______ _______ _____ _____    ______ ____
ROOT
ATOM      1  C   UNL     1      -3.397 -12.408   9.387  1.00  0.00    +0.000 C 
ATOM      2  C   UNL     1      -0.972  -8.847  12.622  1.00  0.00    +0.000 C 
ATOM      3  C   UNL     1      -0.546 -11.017  11.562  1.00  0.00    +0.000 C 
ATOM      4  C   UNL     1      -4.157  -8.249   8.123  1.00  0.00    +0.000 C 
ATOM      5  O   UNL     1      -7.242  -9.581   9.813  1.00  0.00    +0.000 OA
ATOM      6  C   UNL     1      -5.354 -10.956   9.664  1.00  0.00    +0.000 C 
ATOM      7  C   UNL     1      -1.400  -7.535   9.888  1.00  0.00    +0.000 C 
ATOM      8  C   UNL     1      -1.768  -9.850   9.082  1.00  0.00    +0.000 C 
ATOM      9  O   UNL     1      -2.695  -9.941  11.261  1.00  0.00    +0.000 OA
ATOM     10  C   UNL     1      -4.012 -11.055   9.620  1.00  0.00    +0.000 C 
ATOM     11  C   UNL     1      -6.026  -9.668   9.966  1.00  0.00    +0.000 C 
ATOM     12  C   UNL     1      -0.932  -9.002  10.030  1.00  0.00    +0.000 C 
ATOM     13  C   UNL     1      -2.919  -7.283  10.072  1.00  0.00    +0.000 C 
ATOM     14  C   UNL     1      -5.146  -8.518  10.451  1.00  0.00    +0.000 C 
ATOM     15  C   UNL     1      -1.278  -9.672  11.371  1.00  0.00    +0.000 C 
ATOM     16  C   UNL     1      -3.826  -8.483   9.632  1.00  0.00    +0.000 C 
ATOM     17  C   UNL     1      -3.094  -9.859   9.857  1.00  0.00    +0.000 C 
ENDROOT
BRANCH  13  18
ATOM     18  O   UNL     1      -3.202  -6.930  11.442  1.00  0.00    +0.000 OA
BRANCH  18  20
ATOM     19  O   UNL     1      -1.739  -5.170  11.336  1.00  0.00    +0.000 OA
ATOM     20  C   UNL     1      -2.608  -5.800  11.925  1.00  0.00    +0.000 C 
BRANCH  20  25
ATOM     21  C   UNL     1      -3.793  -4.327  15.065  1.00  0.00    +0.000 A 
ATOM     22  C   UNL     1      -3.225  -4.135  13.827  1.00  0.00    +0.000 A 
ATOM     23  C   UNL     1      -3.659  -6.299  14.144  1.00  0.00    +0.000 A 
ATOM     24  O   UNL     1      -4.062  -5.643  15.262  1.00  0.00    +0.000 OA
ATOM     25  C   UNL     1      -3.134  -5.421  13.219  1.00  0.00    +0.000 A 
ENDBRANCH  20  25
ENDBRANCH  18  20
ENDBRANCH  13  18
BRANCH  14  26
ATOM     26  O   UNL     1      -5.841  -7.268  10.312  1.00  0.00    +0.000 OA
BRANCH  26  28
ATOM     27  O   UNL     1      -7.010  -7.501  12.273  1.00  0.00    +0.000 OA
ATOM     28  C   UNL     1      -6.939  -7.122  11.110  1.00  0.00    +0.000 C 
BRANCH  28  33
ATOM     29  C   UNL     1      -9.728  -5.843   9.116  1.00  0.00    +0.000 A 
ATOM     30  C   UNL     1      -8.862  -6.871   9.404  1.00  0.00    +0.000 A 
ATOM     31  C   UNL     1      -8.434  -5.120  10.715  1.00  0.00    +0.000 A 
ATOM     32  O   UNL     1      -9.472  -4.774   9.912  1.00  0.00    +0.000 OA
ATOM     33  C   UNL     1      -8.012  -6.407  10.450  1.00  0.00    +0.000 A 
ENDBRANCH  28  33
ENDBRANCH  26  28
ENDBRANCH  14  26
TORSDOF 6
ENDMDL
