MODEL 1
REMARK VINA RESULT:    -8.045      0.000      0.000
REMARK INTER + INTRA:         -12.452
REMARK INTER:                 -10.867
REMARK INTRA:                  -1.585
REMARK UNBOUND:                -1.585
REMARK  Name = C[C@@H]3CC(=O)[C@H](OC(=O)c1ccoc1)[C@@]4(C)[C@@H](OC(=O)c2ccoc2)C[C@H]5C[C@]...
REMARK  10 active torsions:
REMARK  status: ('A' for Active; 'I' for Inactive)
REMARK    1  A    between atoms: C_1  and  C_27
REMARK    2  A    between atoms: C_2  and  C_31
REMARK    3  A    between atoms: C_3  and  C_31
REMARK    4  A    between atoms: C_4  and  C_32
REMARK    5  A    between atoms: O_17  and  C_23
REMARK    6  A    between atoms: O_17  and  C_29
REMARK    7  A    between atoms: O_18  and  C_24
REMARK    8  A    between atoms: O_18  and  C_30
REMARK    9  A    between atoms: C_23  and  C_25
REMARK   10  A    between atoms: C_24  and  C_26
REMARK                            x       y       z     vdW  Elec       q    Type
REMARK                         _______ _______ _______ _____ _____    ______ ____
ROOT
ATOM      1  C   UNL     1      -8.467  -7.880   9.888  1.00  0.00    +0.000 C 
ATOM      2  C   UNL     1      -6.708 -11.642  10.455  1.00  0.00    +0.000 C 
ATOM      3  C   UNL     1      -4.371 -11.667  11.224  1.00  0.00    +0.000 C 
ATOM      4  C   UNL     1      -4.722  -6.470   9.276  1.00  0.00    +0.000 C 
ATOM      5  O   UNL     1      -5.738  -4.941  12.614  1.00  0.00    +0.000 OA
ATOM      6  C   UNL     1      -7.151  -6.382  11.364  1.00  0.00    +0.000 C 
ATOM      7  C   UNL     1      -3.596  -9.583   9.102  1.00  0.00    +0.000 C 
ATOM      8  C   UNL     1      -6.034  -9.178   8.946  1.00  0.00    +0.000 C 
ATOM      9  O   UNL     1      -5.707  -9.603  11.258  1.00  0.00    +0.000 OA
ATOM     10  C   UNL     1      -5.835  -6.006  11.998  1.00  0.00    +0.000 C 
ATOM     11  C   UNL     1      -7.278  -7.827  10.857  1.00  0.00    +0.000 C 
ATOM     12  C   UNL     1      -4.987 -10.261   9.138  1.00  0.00    +0.000 C 
ATOM     13  C   UNL     1      -3.390  -8.413  10.102  1.00  0.00    +0.000 C 
ATOM     14  C   UNL     1      -4.646  -6.934  11.790  1.00  0.00    +0.000 C 
ATOM     15  C   UNL     1      -5.412 -10.803  10.511  1.00  0.00    +0.000 C 
ATOM     16  C   UNL     1      -4.694  -7.575  10.376  1.00  0.00    +0.000 C 
ATOM     17  C   UNL     1      -5.965  -8.493  10.319  1.00  0.00    +0.000 C 
ENDROOT
BRANCH  13  18
ATOM     18  O   UNL     1      -2.853  -8.913  11.343  1.00  0.00    +0.000 OA
BRANCH  18  20
ATOM     19  O   UNL     1      -1.078 -10.358  11.478  1.00  0.00    +0.000 OA
ATOM     20  C   UNL     1      -1.523  -9.223  11.360  1.00  0.00    +0.000 C 
BRANCH  20  25
ATOM     21  C   UNL     1       0.417  -6.249  10.457  1.00  0.00    +0.000 A 
ATOM     22  C   UNL     1      -0.473  -7.223  10.070  1.00  0.00    +0.000 A 
ATOM     23  C   UNL     1       0.092  -7.505  12.209  1.00  0.00    +0.000 A 
ATOM     24  O   UNL     1       0.761  -6.413  11.760  1.00  0.00    +0.000 OA
ATOM     25  C   UNL     1      -0.691  -8.049  11.211  1.00  0.00    +0.000 A 
ENDBRANCH  20  25
ENDBRANCH  18  20
ENDBRANCH  13  18
BRANCH  14  26
ATOM     26  O   UNL     1      -3.428  -6.187  11.941  1.00  0.00    +0.000 OA
BRANCH  26  28
ATOM     27  O   UNL     1      -2.976  -6.944  14.060  1.00  0.00    +0.000 OA
ATOM     28  C   UNL     1      -2.982  -6.049  13.225  1.00  0.00    +0.000 C 
BRANCH  28  33
ATOM     29  C   UNL     1      -1.270  -2.817  13.473  1.00  0.00    +0.000 A 
ATOM     30  C   UNL     1      -1.358  -4.047  12.863  1.00  0.00    +0.000 A 
ATOM     31  C   UNL     1      -2.947  -3.844  14.413  1.00  0.00    +0.000 A 
ATOM     32  O   UNL     1      -2.235  -2.688  14.418  1.00  0.00    +0.000 OA
ATOM     33  C   UNL     1      -2.452  -4.725  13.473  1.00  0.00    +0.000 A 
ENDBRANCH  28  33
ENDBRANCH  26  28
ENDBRANCH  14  26
TORSDOF 6
ENDMDL
