MODEL 1
REMARK VINA RESULT:    -5.831      0.000      0.000
REMARK INTER + INTRA:          -7.764
REMARK INTER:                  -7.365
REMARK INTRA:                  -0.399
REMARK UNBOUND:                -0.399
REMARK  Name = SANCDB01052.pdb
REMARK  9 active torsions:
REMARK  status: ('A' for Active; 'I' for Inactive)
REMARK    1  A    between atoms: C_1  and  C_2
REMARK    2  A    between atoms: C_2  and  C_4
REMARK    3  A    between atoms: C_5  and  O_15
REMARK    4  A    between atoms: C_6  and  O_13
REMARK    5  A    between atoms: C_7  and  O_11
REMARK    6  A    between atoms: C_9  and  O_10
REMARK    7  A    between atoms: O_11  and  C_12
REMARK    8  A    between atoms: O_13  and  C_14
REMARK    9  A    between atoms: O_15  and  C_16
REMARK                            x       y       z     vdW  Elec       q    Type
REMARK                         _______ _______ _______ _____ _____    ______ ____
ROOT
ATOM      1  C   UNL     1      -6.171 -12.168   8.992  1.00  0.00    +0.000 A 
ATOM      2  C   UNL     1      -5.415 -11.073   9.438  1.00  0.00    +0.000 A 
ATOM      3  C   UNL     1      -6.076  -9.959   9.995  1.00  0.00    +0.000 A 
ATOM      4  C   UNL     1      -7.469  -9.957  10.196  1.00  0.00    +0.000 A 
ATOM      5  C   UNL     1      -8.211 -11.051   9.761  1.00  0.00    +0.000 A 
ATOM      6  C   UNL     1      -7.570 -12.130   9.150  1.00  0.00    +0.000 A 
ENDROOT
BRANCH   1   8
ATOM      7  C   UNL     1      -5.020 -14.502   9.196  1.00  0.00    +0.000 C 
ATOM      8  C   UNL     1      -5.572 -13.381   8.359  1.00  0.00    +0.000 C 
ATOM      9  O   UNL     1      -5.578 -13.461   7.126  1.00  0.00    +0.000 OA
ENDBRANCH   1   8
BRANCH   6  10
ATOM     10  O   UNL     1      -8.400 -13.138   8.724  1.00  0.00    +0.000 OA
ATOM     11  H   UNL     1      -7.996 -13.997   8.986  1.00  0.00    +0.000 HD
ENDBRANCH   6  10
BRANCH   4  12
ATOM     12  O   UNL     1      -7.997  -8.843  10.796  1.00  0.00    +0.000 OA
ATOM     13  C   UNL     1      -9.022  -8.147  10.098  1.00  0.00    +0.000 C 
ENDBRANCH   4  12
BRANCH   3  14
ATOM     14  O   UNL     1      -5.348  -8.856  10.383  1.00  0.00    +0.000 OA
ATOM     15  C   UNL     1      -5.176  -7.972   9.272  1.00  0.00    +0.000 C 
ENDBRANCH   3  14
BRANCH   2  16
ATOM     16  O   UNL     1      -4.060 -11.073   9.217  1.00  0.00    +0.000 OA
ATOM     17  C   UNL     1      -3.283 -11.428  10.364  1.00  0.00    +0.000 C 
ENDBRANCH   2  16
TORSDOF 5
ENDMDL
