MODEL 1
REMARK VINA RESULT:    -6.354      0.000      0.000
REMARK INTER + INTRA:          -9.013
REMARK INTER:                  -9.325
REMARK INTRA:                   0.312
REMARK UNBOUND:                 0.312
REMARK  Name = 
REMARK  14 active torsions:
REMARK  status: ('A' for Active; 'I' for Inactive)
REMARK    1  A    between atoms: C_5  and  O_6
REMARK    2  A    between atoms: C_8  and  O_10
REMARK    3  A    between atoms: O_10  and  C_11
REMARK    4  A    between atoms: C_14  and  C_16
REMARK    5  A    between atoms: C_17  and  O_19
REMARK    6  A    between atoms: C_20  and  O_22
REMARK    7  A    between atoms: C_23  and  O_25
REMARK    8  A    between atoms: C_27  and  O_29
REMARK    9  A    between atoms: C_30  and  C_31
REMARK   10  A    between atoms: C_31  and  O_32
REMARK   11  A    between atoms: C_35  and  O_37
REMARK   12  A    between atoms: C_39  and  C_40
REMARK   13  A    between atoms: C_41  and  C_43
REMARK   14  A    between atoms: C_51  and  O_52
REMARK                            x       y       z     vdW  Elec       q    Type
REMARK                         _______ _______ _______ _____ _____    ______ ____
ROOT
ATOM      1  C   UNL     1      -4.728 -10.112  10.341  1.00  0.00    +0.000 C 
ATOM      2  C   UNL     1      -5.535 -11.046  11.241  1.00  0.00    +0.000 C 
ATOM      3  C   UNL     1      -6.179 -12.197  10.469  1.00  0.00    +0.000 C 
ATOM      4  C   UNL     1      -5.462 -12.606   9.155  1.00  0.00    +0.000 C 
ATOM      5  C   UNL     1      -5.812 -14.072   8.823  1.00  0.00    +0.000 C 
ATOM      6  C   UNL     1      -5.195 -15.085   9.798  1.00  0.00    +0.000 C 
ATOM      7  C   UNL     1      -3.700 -14.843  10.021  1.00  0.00    +0.000 C 
ATOM      8  C   UNL     1      -3.339 -13.373  10.270  1.00  0.00    +0.000 C 
ATOM      9  C   UNL     1      -3.913 -12.382   9.188  1.00  0.00    +0.000 C 
ATOM     10  C   UNL     1      -3.585 -10.864   9.608  1.00  0.00    +0.000 C 
ATOM     11  C   UNL     1      -3.010  -9.932   8.512  1.00  0.00    +0.000 C 
ATOM     12  C   UNL     1      -3.363  -8.446   8.654  1.00  0.00    +0.000 C 
ATOM     13  C   UNL     1      -3.470  -7.844  10.089  1.00  0.00    +0.000 C 
ATOM     14  C   UNL     1      -4.266  -6.525   9.892  1.00  0.00    +0.000 C 
ATOM     15  C   UNL     1      -2.039  -7.587  10.688  1.00  0.00    +0.000 C 
ATOM     16  C   UNL     1      -1.771  -8.777  11.610  1.00  0.00    +0.000 C 
ATOM     17  C   UNL     1      -3.131  -9.153  12.177  1.00  0.00    +0.000 C 
ATOM     18  C   UNL     1      -4.174  -8.846  11.078  1.00  0.00    +0.000 C 
ENDROOT
BRANCH  15  19
ATOM     19  C   UNL     1      -1.815  -6.277  11.407  1.00  0.00    +0.000 C 
ATOM     20  C   UNL     1      -1.006  -5.300  10.992  1.00  0.00    +0.000 C 
ATOM     21  C   UNL     1      -1.085  -4.224  11.975  1.00  0.00    +0.000 C 
ATOM     22  O   UNL     1      -0.473  -3.173  11.904  1.00  0.00    +0.000 OA
ATOM     23  O   UNL     1      -1.939  -4.587  12.966  1.00  0.00    +0.000 OA
ATOM     24  C   UNL     1      -2.442  -5.897  12.695  1.00  0.00    +0.000 C 
ENDBRANCH  15  19
BRANCH   4  25
ATOM     25  O   UNL     1      -6.051 -11.788   8.134  1.00  0.00    +0.000 OA
ATOM     26  H   UNL     1      -6.016 -10.858   8.451  1.00  0.00    +0.000 HD
ENDBRANCH   4  25
BRANCH   8  27
ATOM     27  O   UNL     1      -1.922 -13.260  10.393  1.00  0.00    +0.000 OA
ATOM     28  H   UNL     1      -1.558 -12.806   9.615  1.00  0.00    +0.000 HD
ENDBRANCH   8  27
BRANCH  11  29
ATOM     29  O   UNL     1      -1.591 -10.082   8.480  1.00  0.00    +0.000 OA
ATOM     30  H   UNL     1      -1.250  -9.845   9.361  1.00  0.00    +0.000 HD
ENDBRANCH  11  29
BRANCH  18  31
ATOM     31  O   UNL     1      -5.271  -8.183  11.718  1.00  0.00    +0.000 OA
ATOM     32  H   UNL     1      -5.910  -7.909  11.040  1.00  0.00    +0.000 HD
ENDBRANCH  18  31
BRANCH   6  33
ATOM     33  O   UNL     1      -5.321 -16.418   9.284  1.00  0.00    +0.000 OA
BRANCH  33  34
ATOM     34  C   UNL     1      -4.332 -17.331   9.792  1.00  0.00    +0.000 C 
ATOM     35  O   UNL     1      -3.198 -17.358   8.925  1.00  0.00    +0.000 OA
ATOM     36  C   UNL     1      -2.170 -18.273   9.338  1.00  0.00    +0.000 C 
ATOM     37  C   UNL     1      -1.448 -17.790  10.592  1.00  0.00    +0.000 C 
ATOM     38  C   UNL     1      -2.731 -19.707   9.420  1.00  0.00    +0.000 C 
ATOM     39  C   UNL     1      -4.009 -19.792  10.263  1.00  0.00    +0.000 C 
ATOM     40  C   UNL     1      -5.011 -18.713   9.850  1.00  0.00    +0.000 C 
BRANCH  38  41
ATOM     41  O   UNL     1      -3.039 -20.152   8.087  1.00  0.00    +0.000 OA
ATOM     42  H   UNL     1      -3.061 -19.366   7.508  1.00  0.00    +0.000 HD
ENDBRANCH  38  41
BRANCH  39  43
ATOM     43  O   UNL     1      -3.712 -19.657  11.658  1.00  0.00    +0.000 OA
ATOM     44  H   UNL     1      -2.772 -19.378  11.686  1.00  0.00    +0.000 HD
ENDBRANCH  39  43
BRANCH  40  45
ATOM     45  O   UNL     1      -6.105 -18.702  10.786  1.00  0.00    +0.000 OA
ATOM     46  H   UNL     1      -6.397 -17.771  10.823  1.00  0.00    +0.000 HD
ENDBRANCH  40  45
ENDBRANCH  33  34
ENDBRANCH   6  33
BRANCH   9  47
ATOM     47  C   UNL     1      -3.241 -12.758   7.821  1.00  0.00    +0.000 C 
BRANCH  47  48
ATOM     48  O   UNL     1      -2.382 -13.893   7.928  1.00  0.00    +0.000 OA
ATOM     49  H   UNL     1      -1.574 -13.682   7.424  1.00  0.00    +0.000 HD
ENDBRANCH  47  48
ENDBRANCH   9  47
TORSDOF 12
ENDMDL
