MODEL 1
REMARK VINA RESULT:    -9.592      0.000      0.000
REMARK INTER + INTRA:          -9.592
REMARK INTER:                  -9.592
REMARK INTRA:                   0.000
REMARK UNBOUND:                 0.000
REMARK  Name = [H][C@@]27C[C@@]16C[C@H](Nc3c1c5=[N+]2CCc4c[nH]c(c3=O)c45)SC6=CC7=O
REMARK  0 active torsions:
REMARK  status: ('A' for Active; 'I' for Inactive)
REMARK                            x       y       z     vdW  Elec       q    Type
REMARK                         _______ _______ _______ _____ _____    ______ ____
ROOT
ATOM      1  O   UNL     1      -3.409  -6.165   9.824  1.00  0.00    +0.000 OA
ATOM      2  O   UNL     1      -8.535 -11.696   9.176  1.00  0.00    +0.000 OA
ATOM      3  C   UNL     1      -3.150  -8.483   9.466  1.00  0.00    +0.000 C 
ATOM      4  C   UNL     1      -9.714  -7.541   9.715  1.00  0.00    +0.000 A 
ATOM      5  C   UNL     1      -7.814  -5.900  10.569  1.00  0.00    +0.000 C 
ATOM      6  C   UNL     1      -6.541  -6.090  11.454  1.00  0.00    +0.000 C 
ATOM      7  C   UNL     1      -4.043 -11.387  11.487  1.00  0.00    +0.000 C 
ATOM      8  C   UNL     1      -4.050  -8.898  12.175  1.00  0.00    +0.000 C 
ATOM      9  N   UNL     1      -5.778 -12.056   9.952  1.00  0.00    +0.000 N 
ATOM     10  N   UNL     1      -9.716  -8.912   9.483  1.00  0.00    +0.000 N 
ATOM     11  S   UNL     1      -3.373 -11.172   8.949  1.00  0.00    +0.000 S 
ATOM     12  C   UNL     1      -3.574  -7.297  10.272  1.00  0.00    +0.000 C 
ATOM     13  C   UNL     1      -3.577  -9.691   9.855  1.00  0.00    +0.000 C 
ATOM     14  C   UNL     1      -8.489  -7.189  10.239  1.00  0.00    +0.000 A 
ATOM     15  C   UNL     1      -6.489 -10.872  10.156  1.00  0.00    +0.000 C 
ATOM     16  C   UNL     1      -5.849  -9.813  10.709  1.00  0.00    +0.000 C 
ATOM     17  C   UNL     1      -7.944 -10.750   9.674  1.00  0.00    +0.000 C 
ATOM     18  C   UNL     1      -6.440  -8.458  10.820  1.00  0.00    +0.000 C 
ATOM     19  C   UNL     1      -8.491  -9.424   9.835  1.00  0.00    +0.000 A 
ATOM     20  C   UNL     1      -7.776  -8.382  10.355  1.00  0.00    +0.000 A 
ATOM     21  C   UNL     1      -4.338 -12.159  10.190  1.00  0.00    +0.000 C 
ATOM     22  N   UNL     1      -5.810  -7.416  11.249  1.00  0.00    +0.000 N 
ATOM     23  C   UNL     1      -4.342  -7.515  11.581  1.00  0.00    +0.000 C 
ATOM     24  C   UNL     1      -4.391  -9.936  11.107  1.00  0.00    +0.000 C 
ATOM     25  H   UNL     1      -6.174 -12.663   9.229  1.00  0.00    +0.000 HD
ATOM     26  H   UNL     1     -10.472  -9.440   9.058  1.00  0.00    +0.000 HD
ENDROOT
TORSDOF 0
ENDMDL
