MODEL 1
REMARK VINA RESULT:    -8.137      0.000      0.000
REMARK INTER + INTRA:         -15.296
REMARK INTER:                 -12.893
REMARK INTRA:                  -2.403
REMARK UNBOUND:                -2.403
REMARK  Name = 
REMARK  16 active torsions:
REMARK  status: ('A' for Active; 'I' for Inactive)
REMARK    1  A    between atoms: C_1  and  C_2
REMARK    2  A    between atoms: C_2  and  C_14
REMARK    3  A    between atoms: C_3  and  C_4
REMARK    4  A    between atoms: C_4  and  C_5
REMARK    5  A    between atoms: C_7  and  O_8
REMARK    6  A    between atoms: C_9  and  C_10
REMARK    7  A    between atoms: C_12  and  O_13
REMARK    8  A    between atoms: C_14  and  C_15
REMARK    9  A    between atoms: C_15  and  C_16
REMARK   10  A    between atoms: C_16  and  C_17
REMARK   11  A    between atoms: C_17  and  C_18
REMARK   12  A    between atoms: C_19  and  C_20
REMARK   13  A    between atoms: C_20  and  C_22
REMARK   14  A    between atoms: C_22  and  C_23
REMARK   15  A    between atoms: C_23  and  C_24
REMARK   16  A    between atoms: C_23  and  C_25
REMARK                            x       y       z     vdW  Elec       q    Type
REMARK                         _______ _______ _______ _____ _____    ______ ____
ROOT
ATOM      1  C   UNL     1      -9.539  -7.135   8.919  1.00  0.00    +0.000 C 
ATOM      2  C   UNL     1      -8.981  -7.536  10.262  1.00  0.00    +0.000 C 
ATOM      3  C   UNL     1      -8.776  -8.814  10.645  1.00  0.00    +0.000 C 
ENDROOT
BRANCH   3   4
ATOM      4  C   UNL     1      -8.991 -10.076   9.855  1.00  0.00    +0.000 C 
BRANCH   4   5
ATOM      5  C   UNL     1      -7.707 -10.863   9.720  1.00  0.00    +0.000 A 
ATOM      6  C   UNL     1      -6.557 -10.382  10.372  1.00  0.00    +0.000 A 
ATOM      7  C   UNL     1      -5.354 -11.086  10.308  1.00  0.00    +0.000 A 
ATOM      8  C   UNL     1      -5.257 -12.285   9.601  1.00  0.00    +0.000 A 
ATOM      9  C   UNL     1      -3.965 -13.044   9.534  1.00  0.00    +0.000 C 
ATOM     10  C   UNL     1      -6.402 -12.774   8.961  1.00  0.00    +0.000 A 
ATOM     11  C   UNL     1      -7.610 -12.076   9.026  1.00  0.00    +0.000 A 
BRANCH   7  12
ATOM     12  O   UNL     1      -4.243 -10.611  10.947  1.00  0.00    +0.000 OA
ATOM     13  H   UNL     1      -3.855  -9.899  10.413  1.00  0.00    +0.000 HD
ENDBRANCH   7  12
BRANCH  11  14
ATOM     14  O   UNL     1      -8.663 -12.664   8.383  1.00  0.00    +0.000 OA
ATOM     15  H   UNL     1      -9.110 -13.283   8.977  1.00  0.00    +0.000 HD
ENDBRANCH  11  14
ENDBRANCH   4   5
ENDBRANCH   3   4
BRANCH   2  16
ATOM     16  C   UNL     1      -8.659  -6.337  11.143  1.00  0.00    +0.000 C 
BRANCH  16  17
ATOM     17  C   UNL     1      -7.223  -5.785  11.165  1.00  0.00    +0.000 C 
BRANCH  17  18
ATOM     18  C   UNL     1      -6.132  -6.773  11.611  1.00  0.00    +0.000 C 
BRANCH  18  19
ATOM     19  C   UNL     1      -4.950  -6.910  10.674  1.00  0.00    +0.000 C 
ATOM     20  C   UNL     1      -5.290  -6.768   9.211  1.00  0.00    +0.000 C 
ATOM     21  C   UNL     1      -3.671  -7.120  11.043  1.00  0.00    +0.000 C 
BRANCH  21  22
ATOM     22  C   UNL     1      -3.157  -7.297  12.427  1.00  0.00    +0.000 C 
ATOM     23  O   UNL     1      -3.225  -8.414  12.937  1.00  0.00    +0.000 OA
BRANCH  22  24
ATOM     24  C   UNL     1      -2.621  -6.086  13.169  1.00  0.00    +0.000 C 
BRANCH  24  25
ATOM     25  C   UNL     1      -3.742  -5.191  13.722  1.00  0.00    +0.000 C 
ATOM     26  C   UNL     1      -3.205  -3.826  14.155  1.00  0.00    +0.000 C 
ATOM     27  C   UNL     1      -4.427  -5.880  14.904  1.00  0.00    +0.000 C 
ENDBRANCH  24  25
ENDBRANCH  22  24
ENDBRANCH  21  22
ENDBRANCH  18  19
ENDBRANCH  17  18
ENDBRANCH  16  17
ENDBRANCH   2  16
TORSDOF 11
ENDMDL
