MODEL 1
REMARK VINA RESULT:    -8.002      0.000      0.000
REMARK INTER + INTRA:         -14.696
REMARK INTER:                 -12.914
REMARK INTRA:                  -1.781
REMARK UNBOUND:                -1.781
REMARK  Name = 
REMARK  15 active torsions:
REMARK  status: ('A' for Active; 'I' for Inactive)
REMARK    1  A    between atoms: C_1  and  C_2
REMARK    2  A    between atoms: C_2  and  C_4
REMARK    3  A    between atoms: C_4  and  C_5
REMARK    4  A    between atoms: C_10  and  C_11
REMARK    5  A    between atoms: C_13  and  O_14
REMARK    6  A    between atoms: C_15  and  C_16
REMARK    7  A    between atoms: C_19  and  C_21
REMARK    8  A    between atoms: C_21  and  O_22
REMARK    9  A    between atoms: C_23  and  O_25
REMARK   10  A    between atoms: C_26  and  O_28
REMARK   11  A    between atoms: C_29  and  O_31
REMARK   12  A    between atoms: O_31  and  C_32
REMARK   13  A    between atoms: C_32  and  C_34
REMARK   14  A    between atoms: C_35  and  C_36
REMARK   15  A    between atoms: C_39  and  O_40
REMARK                            x       y       z     vdW  Elec       q    Type
REMARK                         _______ _______ _______ _____ _____    ______ ____
ROOT
ATOM      1  C   UNL     1      -3.724 -10.070   8.957  1.00  0.00    +0.000 C 
ATOM      2  O   UNL     1      -4.710 -11.013   8.508  1.00  0.00    +0.000 OA
ATOM      3  C   UNL     1      -4.138 -12.163   7.861  1.00  0.00    +0.000 C 
ATOM      4  C   UNL     1      -3.217 -12.918   8.825  1.00  0.00    +0.000 C 
ATOM      5  C   UNL     1      -2.111 -11.967   9.301  1.00  0.00    +0.000 C 
ATOM      6  C   UNL     1      -2.704 -10.700   9.930  1.00  0.00    +0.000 C 
ENDROOT
BRANCH   1  16
ATOM      7  C   UNL     1      -7.606 -10.464  10.471  1.00  0.00    +0.000 A 
ATOM      8  C   UNL     1      -8.379  -9.487  10.957  1.00  0.00    +0.000 A 
ATOM      9  C   UNL     1      -7.867  -8.108  11.009  1.00  0.00    +0.000 A 
ATOM     10  O   UNL     1      -8.605  -7.220  11.416  1.00  0.00    +0.000 OA
ATOM     11  C   UNL     1      -6.472  -7.890  10.553  1.00  0.00    +0.000 A 
ATOM     12  C   UNL     1      -5.845  -6.631  10.613  1.00  0.00    +0.000 A 
ATOM     13  C   UNL     1      -6.527  -5.396  11.138  1.00  0.00    +0.000 C 
ATOM     14  C   UNL     1      -4.516  -6.523  10.178  1.00  0.00    +0.000 A 
ATOM     15  C   UNL     1      -3.829  -7.633   9.688  1.00  0.00    +0.000 A 
ATOM     16  C   UNL     1      -4.447  -8.882   9.570  1.00  0.00    +0.000 A 
ATOM     17  C   UNL     1      -5.773  -8.998  10.044  1.00  0.00    +0.000 A 
ATOM     18  O   UNL     1      -6.331 -10.256   9.990  1.00  0.00    +0.000 OA
BRANCH  15  19
ATOM     19  O   UNL     1      -2.524  -7.417   9.348  1.00  0.00    +0.000 OA
ATOM     20  H   UNL     1      -2.085  -6.943  10.073  1.00  0.00    +0.000 HD
ENDBRANCH  15  19
BRANCH   7  21
ATOM     21  C   UNL     1      -8.055 -11.894  10.407  1.00  0.00    +0.000 C 
BRANCH  21  23
ATOM     22  C   UNL     1      -9.579 -11.136   8.460  1.00  0.00    +0.000 C 
ATOM     23  C   UNL     1      -8.701 -12.201   9.066  1.00  0.00    +0.000 C 
ATOM     24  O   UNL     1      -8.516 -13.276   8.491  1.00  0.00    +0.000 OA
ENDBRANCH  21  23
ENDBRANCH   7  21
ENDBRANCH   1  16
BRANCH   4  25
ATOM     25  O   UNL     1      -2.588 -14.042   8.201  1.00  0.00    +0.000 OA
ATOM     26  H   UNL     1      -2.217 -14.596   8.914  1.00  0.00    +0.000 HD
ENDBRANCH   4  25
BRANCH   5  27
ATOM     27  O   UNL     1      -1.282 -12.649  10.254  1.00  0.00    +0.000 OA
ATOM     28  H   UNL     1      -1.141 -13.542   9.881  1.00  0.00    +0.000 HD
ENDBRANCH   5  27
BRANCH   3  29
ATOM     29  C   UNL     1      -5.299 -13.029   7.364  1.00  0.00    +0.000 C 
BRANCH  29  30
ATOM     30  O   UNL     1      -5.585 -14.041   8.331  1.00  0.00    +0.000 OA
ATOM     31  H   UNL     1      -5.789 -13.562   9.157  1.00  0.00    +0.000 HD
ENDBRANCH  29  30
ENDBRANCH   3  29
BRANCH   6  32
ATOM     32  O   UNL     1      -1.615  -9.769  10.155  1.00  0.00    +0.000 OA
BRANCH  32  33
ATOM     33  C   UNL     1      -1.053  -9.806  11.389  1.00  0.00    +0.000 C 
ATOM     34  O   UNL     1      -0.106 -10.487  11.743  1.00  0.00    +0.000 OA
BRANCH  33  35
ATOM     35  C   UNL     1      -1.823  -8.899  12.263  1.00  0.00    +0.000 C 
ATOM     36  C   UNL     1      -1.492  -7.601  12.330  1.00  0.00    +0.000 C 
BRANCH  36  37
ATOM     37  C   UNL     1      -2.205  -6.617  13.155  1.00  0.00    +0.000 A 
ATOM     38  C   UNL     1      -3.149  -7.075  14.087  1.00  0.00    +0.000 A 
ATOM     39  C   UNL     1      -3.869  -6.174  14.877  1.00  0.00    +0.000 A 
ATOM     40  C   UNL     1      -3.653  -4.809  14.725  1.00  0.00    +0.000 A 
ATOM     41  C   UNL     1      -2.736  -4.334  13.797  1.00  0.00    +0.000 A 
ATOM     42  C   UNL     1      -2.016  -5.235  13.009  1.00  0.00    +0.000 A 
BRANCH  40  43
ATOM     43  O   UNL     1      -4.333  -3.894  15.472  1.00  0.00    +0.000 OA
ATOM     44  H   UNL     1      -3.746  -3.140  15.648  1.00  0.00    +0.000 HD
ENDBRANCH  40  43
ENDBRANCH  36  37
ENDBRANCH  33  35
ENDBRANCH  32  33
ENDBRANCH   6  32
TORSDOF 13
ENDMDL
