MODEL 1
REMARK VINA RESULT:   236.689      0.000      0.000
REMARK INTER + INTRA:         390.277
REMARK INTER:                 388.895
REMARK INTRA:                   1.382
REMARK UNBOUND:                 1.382
REMARK  Name = SANCDB00213.pdb
REMARK  21 active torsions:
REMARK  status: ('A' for Active; 'I' for Inactive)
REMARK    1  A    between atoms: C_9  and  O_10
REMARK    2  A    between atoms: C_12  and  O_13
REMARK    3  A    between atoms: C_14  and  C_15
REMARK    4  A    between atoms: C_16  and  O_17
REMARK    5  A    between atoms: C_20  and  C_21
REMARK    6  A    between atoms: C_21  and  C_22
REMARK    7  A    between atoms: C_22  and  C_24
REMARK    8  A    between atoms: C_24  and  C_25
REMARK    9  A    between atoms: C_25  and  O_26
REMARK   10  A    between atoms: C_25  and  C_27
REMARK   11  A    between atoms: C_28  and  C_29
REMARK   12  A    between atoms: C_32  and  O_33
REMARK   13  A    between atoms: C_41  and  O_42
REMARK   14  A    between atoms: C_46  and  C_47
REMARK   15  A    between atoms: C_46  and  O_48
REMARK   16  A    between atoms: C_56  and  C_57
REMARK   17  A    between atoms: C_63  and  O_64
REMARK   18  A    between atoms: O_64  and  C_65
REMARK   19  A    between atoms: C_69  and  O_70
REMARK   20  A    between atoms: C_74  and  C_75
REMARK   21  A    between atoms: C_78  and  C_79
REMARK                            x       y       z     vdW  Elec       q    Type
REMARK                         _______ _______ _______ _____ _____    ______ ____
ROOT
ATOM      1  C   UNL     1      -0.599  -9.204  12.529  1.00  0.00    +0.000 C 
ATOM      2  C   UNL     1       0.601  -9.886  13.138  1.00  0.00    +0.000 C 
ATOM      3  C   UNL     1       0.781 -11.208  13.302  1.00  0.00    +0.000 C 
ATOM      4  C   UNL     1      -0.225 -12.285  13.023  1.00  0.00    +0.000 C 
ATOM      5  C   UNL     1      -0.129 -12.832  11.598  1.00  0.00    +0.000 C 
ATOM      6  C   UNL     1      -1.075 -14.021  11.427  1.00  0.00    +0.000 C 
ATOM      7  C   UNL     1      -1.226 -14.515   9.980  1.00  0.00    +0.000 C 
ATOM      8  O   UNL     1      -2.011 -15.713  10.072  1.00  0.00    +0.000 OA
ATOM      9  C   UNL     1      -2.196 -16.405   8.842  1.00  0.00    +0.000 C 
ATOM     10  C   UNL     1      -2.903 -15.509   7.817  1.00  0.00    +0.000 C 
ATOM     11  C   UNL     1      -2.159 -14.181   7.656  1.00  0.00    +0.000 C 
ATOM     12  C   UNL     1      -1.877 -13.503   9.008  1.00  0.00    +0.000 C 
ATOM     13  C   UNL     1      -3.166 -12.884   9.564  1.00  0.00    +0.000 C 
ATOM     14  C   UNL     1      -2.986 -17.733   9.108  1.00  0.00    +0.000 C 
ATOM     15  C   UNL     1      -3.807 -17.798  10.428  1.00  0.00    +0.000 C 
ATOM     16  O   UNL     1      -4.293 -19.140  10.636  1.00  0.00    +0.000 OA
ATOM     17  C   UNL     1      -5.431 -19.577   9.872  1.00  0.00    +0.000 C 
ATOM     18  C   UNL     1      -6.286 -18.432   9.304  1.00  0.00    +0.000 C 
ATOM     19  C   UNL     1      -6.324 -17.293  10.330  1.00  0.00    +0.000 C 
ATOM     20  O   UNL     1      -7.127 -16.229   9.760  1.00  0.00    +0.000 OA
ATOM     21  C   UNL     1      -8.027 -15.628  10.581  1.00  0.00    +0.000 C 
ATOM     22  O   UNL     1      -8.130 -15.807  11.786  1.00  0.00    +0.000 OA
ATOM     23  C   UNL     1      -8.883 -14.677   9.796  1.00  0.00    +0.000 C 
ATOM     24  C   UNL     1      -8.257 -13.285   9.699  1.00  0.00    +0.000 C 
ATOM     25  C   UNL     1      -7.001 -13.194   8.840  1.00  0.00    +0.000 C 
ATOM     26  C   UNL     1      -7.300 -13.477   7.373  1.00  0.00    +0.000 C 
ATOM     27  C   UNL     1      -8.707 -13.047   6.956  1.00  0.00    +0.000 C 
ATOM     28  C   UNL     1      -9.254 -11.955   7.886  1.00  0.00    +0.000 C 
ATOM     29  C   UNL     1     -10.706 -11.631   7.497  1.00  0.00    +0.000 C 
ATOM     30  C   UNL     1     -11.238 -10.426   8.284  1.00  0.00    +0.000 C 
ATOM     31  C   UNL     1     -12.627 -10.030   7.778  1.00  0.00    +0.000 C 
ATOM     32  C   UNL     1     -10.270  -9.251   8.148  1.00  0.00    +0.000 C 
ATOM     33  C   UNL     1      -8.829  -9.665   8.462  1.00  0.00    +0.000 C 
ATOM     34  C   UNL     1      -7.901  -8.550   8.061  1.00  0.00    +0.000 C 
ATOM     35  C   UNL     1      -7.142  -7.782   8.860  1.00  0.00    +0.000 C 
ATOM     36  C   UNL     1      -6.359  -6.602   8.372  1.00  0.00    +0.000 C 
ATOM     37  O   UNL     1      -6.197  -5.734   9.506  1.00  0.00    +0.000 OA
ATOM     38  C   UNL     1      -6.920  -6.297  10.611  1.00  0.00    +0.000 C 
ATOM     39  C   UNL     1      -6.364  -5.824  11.959  1.00  0.00    +0.000 C 
ATOM     40  C   UNL     1      -6.698  -4.348  12.207  1.00  0.00    +0.000 C 
ATOM     41  C   UNL     1      -4.859  -6.014  12.171  1.00  0.00    +0.000 C 
ATOM     42  O   UNL     1      -4.458  -6.595  13.186  1.00  0.00    +0.000 OA
ATOM     43  C   UNL     1      -3.887  -5.434  11.151  1.00  0.00    +0.000 C 
ATOM     44  C   UNL     1      -2.459  -5.360  11.695  1.00  0.00    +0.000 C 
ATOM     45  C   UNL     1      -1.622  -4.391  10.867  1.00  0.00    +0.000 C 
ATOM     46  C   UNL     1      -0.169  -4.406  11.334  1.00  0.00    +0.000 C 
ATOM     47  C   UNL     1       0.352  -5.841  11.315  1.00  0.00    +0.000 C 
ATOM     48  C   UNL     1      -0.561  -6.802  12.093  1.00  0.00    +0.000 C 
ATOM     49  C   UNL     1      -0.442  -6.588  13.611  1.00  0.00    +0.000 C 
ATOM     50  C   UNL     1      -1.240  -7.626  14.398  1.00  0.00    +0.000 C 
ATOM     51  C   UNL     1      -1.658  -8.827  13.563  1.00  0.00    +0.000 C 
ATOM     52  O   UNL     1      -0.078  -8.111  11.768  1.00  0.00    +0.000 OA
ATOM     53  O   UNL     1      -1.899  -6.674  11.614  1.00  0.00    +0.000 OA
ATOM     54  C   UNL     1      -7.034  -7.808  10.356  1.00  0.00    +0.000 C 
ATOM     55  C   UNL     1      -5.849  -8.663  10.790  1.00  0.00    +0.000 C 
ATOM     56  O   UNL     1      -8.432 -10.799   7.691  1.00  0.00    +0.000 OA
ATOM     57  O   UNL     1      -9.268 -12.366   9.261  1.00  0.00    +0.000 OA
ATOM     58  C   UNL     1      -4.916 -16.747  10.614  1.00  0.00    +0.000 C 
ATOM     59  C   UNL     1      -4.864 -16.177  12.042  1.00  0.00    +0.000 C 
ENDROOT
BRANCH   9  60
ATOM     60  O   UNL     1      -0.918 -16.753   8.286  1.00  0.00    +0.000 OA
ATOM     61  H   UNL     1      -0.593 -15.908   7.903  1.00  0.00    +0.000 HD
ENDBRANCH   9  60
BRANCH  11  62
ATOM     62  O   UNL     1      -0.926 -14.388   6.961  1.00  0.00    +0.000 OA
ATOM     63  H   UNL     1      -0.896 -15.331   6.686  1.00  0.00    +0.000 HD
ENDBRANCH  11  62
BRANCH  14  64
ATOM     64  O   UNL     1      -2.006 -18.817   9.182  1.00  0.00    +0.000 OA
ATOM     65  H   UNL     1      -2.519 -19.637   9.328  1.00  0.00    +0.000 HD
ENDBRANCH  14  64
BRANCH  18  66
ATOM     66  O   UNL     1      -7.629 -18.864   9.051  1.00  0.00    +0.000 OA
ATOM     67  H   UNL     1      -7.760 -19.719   9.497  1.00  0.00    +0.000 HD
ENDBRANCH  18  66
BRANCH  26  68
ATOM     68  O   UNL     1      -6.321 -12.819   6.571  1.00  0.00    +0.000 OA
ATOM     69  H   UNL     1      -5.571 -12.599   7.158  1.00  0.00    +0.000 HD
ENDBRANCH  26  68
BRANCH  30  70
ATOM     70  O   UNL     1     -11.397 -10.750   9.668  1.00  0.00    +0.000 OA
ATOM     71  H   UNL     1     -12.087 -10.164  10.042  1.00  0.00    +0.000 HD
ENDBRANCH  30  70
BRANCH  46  72
ATOM     72  O   UNL     1       0.568  -3.559  10.446  1.00  0.00    +0.000 OA
ATOM     73  C   UNL     1      -0.113  -2.360  10.102  1.00  0.00    +0.000 C 
ENDBRANCH  46  72
BRANCH  50  74
ATOM     74  O   UNL     1      -2.381  -7.017  15.002  1.00  0.00    +0.000 OA
ATOM     75  H   UNL     1      -3.033  -6.800  14.298  1.00  0.00    +0.000 HD
ENDBRANCH  50  74
BRANCH  17  76
ATOM     76  C   UNL     1      -4.952 -20.599   8.816  1.00  0.00    +0.000 C 
BRANCH  76  77
ATOM     77  C   UNL     1      -5.524 -20.460   7.419  1.00  0.00    +0.000 C 
ATOM     78  C   UNL     1      -6.798 -20.076   7.230  1.00  0.00    +0.000 C 
BRANCH  77  79
ATOM     79  C   UNL     1      -4.615 -20.762   6.235  1.00  0.00    +0.000 C 
BRANCH  79  80
ATOM     80  C   UNL     1      -3.944 -19.517   5.621  1.00  0.00    +0.000 C 
BRANCH  80  81
ATOM     81  O   UNL     1      -3.977 -19.588   4.199  1.00  0.00    +0.000 OA
ATOM     82  H   UNL     1      -3.093 -19.341   3.879  1.00  0.00    +0.000 HD
ENDBRANCH  80  81
BRANCH  80  83
ATOM     83  C   UNL     1      -2.496 -19.446   6.005  1.00  0.00    +0.000 C 
ATOM     84  C   UNL     1      -1.576 -20.365   5.661  1.00  0.00    +0.000 C 
BRANCH  84  85
ATOM     85  C   UNL     1      -0.164 -20.351   5.998  1.00  0.00    +0.000 C 
ATOM     86  C   UNL     1       0.772 -20.764   5.133  1.00  0.00    +0.000 C 
ATOM     87 CL   UNL     1       0.355 -19.775   7.549  1.00  0.00    +0.000 Cl
ENDBRANCH  84  85
ENDBRANCH  80  83
ENDBRANCH  79  80
ENDBRANCH  77  79
ENDBRANCH  76  77
ENDBRANCH  17  76
TORSDOF 15
ENDMDL
