MODEL 1
REMARK VINA RESULT:    -9.229      0.000      0.000
REMARK INTER + INTRA:          -9.499
REMARK INTER:                  -9.499
REMARK INTRA:                   0.000
REMARK UNBOUND:                 0.000
REMARK  Name = [H][C@]2(N)[C@@H]4C(=O)C=C1S[C@@H]3C[C@]12c5c(N3)c(=O)c7[nH]cc6CC[N+]4=c5c67
REMARK  1 active torsions:
REMARK  status: ('A' for Active; 'I' for Inactive)
REMARK    1  A    between atoms: N_2  and  C_25
REMARK                            x       y       z     vdW  Elec       q    Type
REMARK                         _______ _______ _______ _____ _____    ______ ____
ROOT
ATOM      1  O   UNL     1      -4.684  -6.574  10.039  1.00  0.00    +0.000 OA
ATOM      2  O   UNL     1      -3.359 -13.710   8.208  1.00  0.00    +0.000 OA
ATOM      3  C   UNL     1      -2.653  -7.738   9.799  1.00  0.00    +0.000 C 
ATOM      4  C   UNL     1      -7.464 -12.400   8.880  1.00  0.00    +0.000 A 
ATOM      5  C   UNL     1      -7.763 -10.260  10.425  1.00  0.00    +0.000 C 
ATOM      6  C   UNL     1      -6.830  -9.035  10.691  1.00  0.00    +0.000 C 
ATOM      7  C   UNL     1      -1.200 -10.596  11.567  1.00  0.00    +0.000 C 
ATOM      8  N   UNL     1      -1.524 -12.028   9.654  1.00  0.00    +0.000 N 
ATOM      9  N   UNL     1      -6.329 -13.093   8.471  1.00  0.00    +0.000 N 
ATOM     10  S   UNL     1      -0.601  -9.474   9.262  1.00  0.00    +0.000 S 
ATOM     11  C   UNL     1      -3.957  -7.465  10.474  1.00  0.00    +0.000 C 
ATOM     12  C   UNL     1      -2.016  -8.877  10.095  1.00  0.00    +0.000 C 
ATOM     13  C   UNL     1      -7.069 -11.339   9.664  1.00  0.00    +0.000 A 
ATOM     14  C   UNL     1      -2.909 -11.869   9.705  1.00  0.00    +0.000 C 
ATOM     15  C   UNL     1      -3.426 -10.839  10.419  1.00  0.00    +0.000 C 
ATOM     16  C   UNL     1      -3.818 -12.803   8.888  1.00  0.00    +0.000 C 
ATOM     17  C   UNL     1      -4.866 -10.478  10.409  1.00  0.00    +0.000 C 
ATOM     18  C   UNL     1      -5.220 -12.481   9.003  1.00  0.00    +0.000 A 
ATOM     19  C   UNL     1      -5.678 -11.411   9.717  1.00  0.00    +0.000 A 
ATOM     20  C   UNL     1      -0.597 -11.054  10.229  1.00  0.00    +0.000 C 
ATOM     21  C   UNL     1      -4.444  -8.401  11.584  1.00  0.00    +0.000 C 
ATOM     22  N   UNL     1      -5.361  -9.405  10.926  1.00  0.00    +0.000 N 
ATOM     23  C   UNL     1      -3.274  -9.160  12.269  1.00  0.00    +0.000 C 
ATOM     24  C   UNL     1      -2.493  -9.871  11.139  1.00  0.00    +0.000 C 
ATOM     25  H   UNL     1      -1.193 -12.563   8.847  1.00  0.00    +0.000 HD
ATOM     26  H   UNL     1      -6.318 -13.921   7.883  1.00  0.00    +0.000 HD
ENDROOT
BRANCH  23  27
ATOM     27  N   UNL     1      -2.488  -8.269  13.129  1.00  0.00    +0.000 NA
ATOM     28  H   UNL     1      -1.997  -7.556  12.580  1.00  0.00    +0.000 HD
ATOM     29  H   UNL     1      -3.054  -7.740  13.798  1.00  0.00    +0.000 HD
ENDBRANCH  23  27
TORSDOF 1
ENDMDL
