MODEL 1
REMARK VINA RESULT:    -6.257      0.000      0.000
REMARK INTER + INTRA:         -11.876
REMARK INTER:                 -11.744
REMARK INTRA:                  -0.132
REMARK UNBOUND:                -0.132
REMARK  Name = SANCDB01049.pdb
REMARK  21 active torsions:
REMARK  status: ('A' for Active; 'I' for Inactive)
REMARK    1  A    between atoms: C_1  and  C_2
REMARK    2  A    between atoms: C_4  and  O_39
REMARK    3  A    between atoms: C_5  and  C_17
REMARK    4  A    between atoms: C_11  and  C_13
REMARK    5  A    between atoms: C_13  and  C_14
REMARK    6  A    between atoms: C_14  and  C_16
REMARK    7  A    between atoms: C_18  and  O_27
REMARK    8  A    between atoms: C_19  and  O_26
REMARK    9  A    between atoms: C_20  and  O_25
REMARK   10  A    between atoms: C_21  and  C_23
REMARK   11  A    between atoms: C_23  and  O_24
REMARK   12  A    between atoms: O_27  and  C_28
REMARK   13  A    between atoms: C_28  and  C_30
REMARK   14  A    between atoms: C_31  and  C_32
REMARK   15  A    between atoms: C_35  and  O_38
REMARK   16  A    between atoms: O_39  and  C_40
REMARK   17  A    between atoms: C_41  and  O_50
REMARK   18  A    between atoms: C_42  and  O_49
REMARK   19  A    between atoms: C_43  and  O_48
REMARK   20  A    between atoms: C_44  and  C_46
REMARK   21  A    between atoms: C_46  and  O_47
REMARK                            x       y       z     vdW  Elec       q    Type
REMARK                         _______ _______ _______ _____ _____    ______ ____
ROOT
ATOM      1  C   UNL     1      -9.291 -12.464   8.472  1.00  0.00    +0.000 C 
ATOM      2  C   UNL     1      -8.094 -11.746   9.037  1.00  0.00    +0.000 A 
ATOM      3  C   UNL     1      -6.840 -12.360   8.922  1.00  0.00    +0.000 A 
ATOM      4  C   UNL     1      -5.688 -11.750   9.423  1.00  0.00    +0.000 A 
ATOM      5  C   UNL     1      -5.750 -10.493  10.082  1.00  0.00    +0.000 A 
ATOM      6  C   UNL     1      -7.017  -9.882  10.201  1.00  0.00    +0.000 A 
ATOM      7  C   UNL     1      -8.174 -10.492   9.671  1.00  0.00    +0.000 A 
ATOM      8  C   UNL     1      -9.465  -9.769   9.798  1.00  0.00    +0.000 A 
ATOM      9  O   UNL     1     -10.506 -10.128   9.266  1.00  0.00    +0.000 OA
ATOM     10  C   UNL     1      -9.467  -8.554  10.618  1.00  0.00    +0.000 A 
ATOM     11  C   UNL     1      -8.313  -8.098  11.113  1.00  0.00    +0.000 A 
ATOM     12  O   UNL     1      -7.084  -8.675  10.856  1.00  0.00    +0.000 OA
ENDROOT
BRANCH   5  13
ATOM     13  C   UNL     1      -4.420  -9.870  10.543  1.00  0.00    +0.000 C 
ATOM     14  C   UNL     1      -3.008 -10.428  10.213  1.00  0.00    +0.000 C 
ATOM     15  C   UNL     1      -2.276  -9.706   9.066  1.00  0.00    +0.000 C 
ATOM     16  C   UNL     1      -2.505  -8.185   9.071  1.00  0.00    +0.000 C 
ATOM     17  C   UNL     1      -3.963  -7.781   9.326  1.00  0.00    +0.000 C 
ATOM     18  O   UNL     1      -4.459  -8.424  10.510  1.00  0.00    +0.000 OA
BRANCH  15  19
ATOM     19  O   UNL     1      -2.566 -10.281   7.797  1.00  0.00    +0.000 OA
ATOM     20  H   UNL     1      -2.412  -9.589   7.114  1.00  0.00    +0.000 HD
ENDBRANCH  15  19
BRANCH  16  21
ATOM     21  O   UNL     1      -1.701  -7.603  10.117  1.00  0.00    +0.000 OA
ATOM     22  H   UNL     1      -0.861  -7.318   9.709  1.00  0.00    +0.000 HD
ENDBRANCH  16  21
BRANCH  14  23
ATOM     23  O   UNL     1      -2.211 -10.195  11.425  1.00  0.00    +0.000 OA
BRANCH  23  24
ATOM     24  C   UNL     1      -2.879  -9.689  12.492  1.00  0.00    +0.000 C 
ATOM     25  O   UNL     1      -3.785 -10.229  13.101  1.00  0.00    +0.000 OA
BRANCH  24  26
ATOM     26  C   UNL     1      -2.315  -8.359  12.791  1.00  0.00    +0.000 C 
ATOM     27  C   UNL     1      -3.134  -7.315  12.987  1.00  0.00    +0.000 C 
BRANCH  27  28
ATOM     28  C   UNL     1      -2.664  -5.955  13.276  1.00  0.00    +0.000 A 
ATOM     29  C   UNL     1      -3.382  -5.073  14.097  1.00  0.00    +0.000 A 
ATOM     30  C   UNL     1      -2.917  -3.775  14.328  1.00  0.00    +0.000 A 
ATOM     31  C   UNL     1      -1.736  -3.354  13.726  1.00  0.00    +0.000 A 
ATOM     32  C   UNL     1      -1.019  -4.207  12.897  1.00  0.00    +0.000 A 
ATOM     33  C   UNL     1      -1.485  -5.504  12.667  1.00  0.00    +0.000 A 
BRANCH  31  34
ATOM     34  O   UNL     1      -1.245  -2.099  13.923  1.00  0.00    +0.000 OA
ATOM     35  H   UNL     1      -0.325  -2.071  13.610  1.00  0.00    +0.000 HD
ENDBRANCH  31  34
ENDBRANCH  27  28
ENDBRANCH  24  26
ENDBRANCH  23  24
ENDBRANCH  14  23
BRANCH  17  36
ATOM     36  C   UNL     1      -4.909  -7.890   8.119  1.00  0.00    +0.000 C 
BRANCH  36  37
ATOM     37  O   UNL     1      -6.146  -7.234   8.347  1.00  0.00    +0.000 OA
ATOM     38  H   UNL     1      -6.821  -7.918   8.531  1.00  0.00    +0.000 HD
ENDBRANCH  36  37
ENDBRANCH  17  36
ENDBRANCH   5  13
BRANCH   4  39
ATOM     39  O   UNL     1      -4.440 -12.296   9.308  1.00  0.00    +0.000 OA
BRANCH  39  40
ATOM     40  C   UNL     1      -4.115 -13.208   8.255  1.00  0.00    +0.000 C 
ATOM     41  C   UNL     1      -2.591 -13.439   8.342  1.00  0.00    +0.000 C 
ATOM     42  C   UNL     1      -2.233 -14.125   9.675  1.00  0.00    +0.000 C 
ATOM     43  C   UNL     1      -3.403 -14.941  10.256  1.00  0.00    +0.000 C 
ATOM     44  C   UNL     1      -4.277 -15.480   9.123  1.00  0.00    +0.000 C 
ATOM     45  O   UNL     1      -4.866 -14.428   8.330  1.00  0.00    +0.000 OA
BRANCH  41  46
ATOM     46  O   UNL     1      -2.135 -14.257   7.254  1.00  0.00    +0.000 OA
ATOM     47  H   UNL     1      -2.542 -13.925   6.434  1.00  0.00    +0.000 HD
ENDBRANCH  41  46
BRANCH  42  48
ATOM     48  O   UNL     1      -1.817 -13.165  10.665  1.00  0.00    +0.000 OA
ATOM     49  H   UNL     1      -2.621 -12.717  11.007  1.00  0.00    +0.000 HD
ENDBRANCH  42  48
BRANCH  43  50
ATOM     50  O   UNL     1      -2.899 -15.981  11.097  1.00  0.00    +0.000 OA
ATOM     51  H   UNL     1      -2.759 -15.583  11.979  1.00  0.00    +0.000 HD
ENDBRANCH  43  50
BRANCH  44  52
ATOM     52  C   UNL     1      -5.432 -16.334   9.658  1.00  0.00    +0.000 C 
BRANCH  52  53
ATOM     53  O   UNL     1      -5.052 -17.714   9.670  1.00  0.00    +0.000 OA
ATOM     54  H   UNL     1      -5.804 -18.193   9.273  1.00  0.00    +0.000 HD
ENDBRANCH  52  53
ENDBRANCH  44  52
ENDBRANCH  39  40
ENDBRANCH   4  39
BRANCH  11  55
ATOM     55  C   UNL     1      -8.256  -6.882  11.997  1.00  0.00    +0.000 C 
BRANCH  55  56
ATOM     56  C   UNL     1      -7.512  -5.739  11.313  1.00  0.00    +0.000 C 
ATOM     57  O   UNL     1      -8.028  -5.010  10.462  1.00  0.00    +0.000 OA
ATOM     58  C   UNL     1      -6.061  -5.578  11.691  1.00  0.00    +0.000 C 
ENDBRANCH  55  56
ENDBRANCH  11  55
TORSDOF 19
ENDMDL
