MODEL 1
REMARK VINA RESULT:   -10.085      0.000      0.000
REMARK INTER + INTRA:         -10.085
REMARK INTER:                 -10.085
REMARK INTRA:                   0.000
REMARK UNBOUND:                 0.000
REMARK  Name = SANCDB00822.pdb
REMARK  3 active torsions:
REMARK  status: ('A' for Active; 'I' for Inactive)
REMARK    1  A    between atoms: C_1  and  C_2
REMARK    2  A    between atoms: C_20  and  C_21
REMARK    3  A    between atoms: C_20  and  C_22
REMARK                            x       y       z     vdW  Elec       q    Type
REMARK                         _______ _______ _______ _____ _____    ______ ____
ROOT
ATOM      1  C   UNL     1      -2.976 -14.360   9.409  1.00  0.00    +0.000 C 
ATOM      2  C   UNL     1      -3.778 -13.526   8.417  1.00  0.00    +0.000 C 
ATOM      3  C   UNL     1      -5.179 -14.111   8.166  1.00  0.00    +0.000 C 
ATOM      4  O   UNL     1      -6.154 -13.325   8.899  1.00  0.00    +0.000 OA
ATOM      5  C   UNL     1      -5.459 -12.164   9.203  1.00  0.00    +0.000 C 
ATOM      6  C   UNL     1      -4.158 -12.210   8.964  1.00  0.00    +0.000 C 
ATOM      7  C   UNL     1      -3.303 -11.057   9.202  1.00  0.00    +0.000 C 
ATOM      8  O   UNL     1      -2.144 -11.031   8.822  1.00  0.00    +0.000 OA
ATOM      9  C   UNL     1      -3.935  -9.889   9.959  1.00  0.00    +0.000 C 
ATOM     10  O   UNL     1      -3.194  -9.070  10.484  1.00  0.00    +0.000 OA
ATOM     11  C   UNL     1      -5.434  -9.828  10.070  1.00  0.00    +0.000 A 
ATOM     12  C   UNL     1      -6.153 -10.991   9.725  1.00  0.00    +0.000 A 
ATOM     13  C   UNL     1      -7.539 -11.006   9.876  1.00  0.00    +0.000 A 
ATOM     14  C   UNL     1      -8.208  -9.890  10.372  1.00  0.00    +0.000 A 
ATOM     15  C   UNL     1      -7.520  -8.714  10.725  1.00  0.00    +0.000 A 
ATOM     16  C   UNL     1      -6.115  -8.666  10.535  1.00  0.00    +0.000 A 
ATOM     17  C   UNL     1      -5.344  -7.398  10.845  1.00  0.00    +0.000 C 
ATOM     18  C   UNL     1      -6.203  -6.148  10.973  1.00  0.00    +0.000 C 
ATOM     19  C   UNL     1      -7.392  -6.434  11.871  1.00  0.00    +0.000 C 
ATOM     20  C   UNL     1      -8.318  -7.515  11.267  1.00  0.00    +0.000 C 
ATOM     21  C   UNL     1      -9.149  -6.907  10.114  1.00  0.00    +0.000 C 
ATOM     22  C   UNL     1      -9.289  -7.940  12.394  1.00  0.00    +0.000 C 
ENDROOT
TORSDOF 0
ENDMDL
