MODEL 1
REMARK VINA RESULT:   -10.108      0.000      0.000
REMARK INTER + INTRA:         -10.108
REMARK INTER:                 -10.108
REMARK INTRA:                   0.000
REMARK UNBOUND:                 0.000
REMARK  Name = [H][C@@]23C[C@]1(C=C(Br)C(=O)C[C@@]1([H])S2)c4c(N3)c(=O)c6[nH]cc5CCN=c4c56
REMARK  0 active torsions:
REMARK  status: ('A' for Active; 'I' for Inactive)
REMARK                            x       y       z     vdW  Elec       q    Type
REMARK                         _______ _______ _______ _____ _____    ______ ____
ROOT
ATOM      1  O   UNL     1      -1.287  -6.156  10.555  1.00  0.00    +0.000 OA
ATOM      2  O   UNL     1      -7.901 -11.930   9.673  1.00  0.00    +0.000 OA
ATOM      3 BR   UNL     1      -2.583  -5.978  13.372  1.00  0.00    +0.000 Br
ATOM      4  C   UNL     1      -3.715  -8.241  12.138  1.00  0.00    +0.000 C 
ATOM      5  C   UNL     1      -9.837  -8.068   9.620  1.00  0.00    +0.000 A 
ATOM      6  C   UNL     1      -7.083  -5.890  11.137  1.00  0.00    +0.000 C 
ATOM      7  C   UNL     1      -8.294  -6.001  10.179  1.00  0.00    +0.000 C 
ATOM      8  C   UNL     1      -1.901  -8.368   9.906  1.00  0.00    +0.000 C 
ATOM      9  C   UNL     1      -3.452 -10.620  11.541  1.00  0.00    +0.000 C 
ATOM     10  N   UNL     1      -6.041  -6.957  11.038  1.00  0.00    +0.000 NA
ATOM     11  N   UNL     1      -5.167 -11.712  10.296  1.00  0.00    +0.000 N 
ATOM     12  N   UNL     1      -9.563  -9.424   9.596  1.00  0.00    +0.000 N 
ATOM     13  S   UNL     1      -3.108 -10.647   8.933  1.00  0.00    +0.000 S 
ATOM     14  C   UNL     1      -2.825  -7.241  12.022  1.00  0.00    +0.000 C 
ATOM     15  C   UNL     1      -1.974  -7.147  10.795  1.00  0.00    +0.000 C 
ATOM     16  C   UNL     1      -8.697  -7.417  10.037  1.00  0.00    +0.000 A 
ATOM     17  C   UNL     1      -6.019 -10.607  10.391  1.00  0.00    +0.000 C 
ATOM     18  C   UNL     1      -5.531  -9.387  10.749  1.00  0.00    +0.000 C 
ATOM     19  C   UNL     1      -7.480 -10.821   9.988  1.00  0.00    +0.000 C 
ATOM     20  C   UNL     1      -6.395  -8.156  10.734  1.00  0.00    +0.000 C 
ATOM     21  C   UNL     1      -8.259  -9.623   9.970  1.00  0.00    +0.000 A 
ATOM     22  C   UNL     1      -7.740  -8.404  10.301  1.00  0.00    +0.000 A 
ATOM     23  C   UNL     1      -3.730 -11.562  10.378  1.00  0.00    +0.000 C 
ATOM     24  C   UNL     1      -3.282  -8.984   9.723  1.00  0.00    +0.000 C 
ATOM     25  C   UNL     1      -4.020  -9.258  11.063  1.00  0.00    +0.000 C 
ATOM     26  H   UNL     1      -5.515 -12.424   9.651  1.00  0.00    +0.000 HD
ATOM     27  H   UNL     1     -10.197 -10.154   9.293  1.00  0.00    +0.000 HD
ENDROOT
TORSDOF 0
ENDMDL
