MODEL 1
REMARK VINA RESULT:    85.423      0.000      0.000
REMARK INTER + INTRA:         105.331
REMARK INTER:                 105.398
REMARK INTRA:                  -0.066
REMARK UNBOUND:                -0.066
REMARK  Name = CC%14C(O)C%13(OCC%10%12C(=O)C=C9C8(C)Cc7nc6CC5CCC4C3=CC2OC1(OC(C)(CO)CC1O)C(...
REMARK  16 active torsions:
REMARK  status: ('A' for Active; 'I' for Inactive)
REMARK    1  A    between atoms: C_1  and  C_48
REMARK    2  A    between atoms: C_2  and  C_49
REMARK    3  A    between atoms: C_3  and  C_50
REMARK    4  A    between atoms: C_4  and  C_59
REMARK    5  A    between atoms: C_5  and  C_59
REMARK    6  A    between atoms: C_6  and  C_60
REMARK    7  A    between atoms: C_7  and  C_61
REMARK    8  A    between atoms: C_8  and  C_62
REMARK    9  A    between atoms: C_9  and  C_64
REMARK   10  A    between atoms: O_11  and  C_19
REMARK   11  A    between atoms: O_12  and  C_46
REMARK   12  A    between atoms: O_13  and  C_47
REMARK   13  A    between atoms: O_14  and  C_54
REMARK   14  A    between atoms: O_15  and  C_63
REMARK   15  A    between atoms: O_16  and  C_65
REMARK   16  A    between atoms: C_19  and  C_60
REMARK                            x       y       z     vdW  Elec       q    Type
REMARK                         _______ _______ _______ _____ _____    ______ ____
ROOT
ATOM      1  C   UNL     1       0.781  -3.703  12.366  1.00  0.00    +0.000 C 
ATOM      2  C   UNL     1      -0.218  -6.941  11.102  1.00  0.00    +0.000 C 
ATOM      3  C   UNL     1     -19.166 -15.770   3.448  1.00  0.00    +0.000 C 
ATOM      4  C   UNL     1      -1.179  -4.046  14.493  1.00  0.00    +0.000 C 
ATOM      5  C   UNL     1      -2.940  -2.935  13.139  1.00  0.00    +0.000 C 
ATOM      6  C   UNL     1     -16.863 -20.763   2.689  1.00  0.00    +0.000 C 
ATOM      7  C   UNL     1      -8.872  -7.446   8.914  1.00  0.00    +0.000 C 
ATOM      8  C   UNL     1     -13.622 -10.472   3.959  1.00  0.00    +0.000 C 
ATOM      9  C   UNL     1     -17.323 -12.764   2.093  1.00  0.00    +0.000 C 
ATOM     10  O   UNL     1      -3.604  -6.916   8.206  1.00  0.00    +0.000 OA
ATOM     11  C   UNL     1      -5.766  -7.642   8.636  1.00  0.00    +0.000 C 
ATOM     12  C   UNL     1     -14.944 -15.290   1.219  1.00  0.00    +0.000 C 
ATOM     13  C   UNL     1     -11.889 -12.027   1.833  1.00  0.00    +0.000 C 
ATOM     14  C   UNL     1      -8.639  -9.474  11.297  1.00  0.00    +0.000 C 
ATOM     15  C   UNL     1     -12.864 -13.124   1.418  1.00  0.00    +0.000 C 
ATOM     16  C   UNL     1      -7.378  -8.737  11.754  1.00  0.00    +0.000 C 
ATOM     17  C   UNL     1      -4.378  -5.727  11.016  1.00  0.00    +0.000 C 
ATOM     18  C   UNL     1     -10.060 -10.242   9.365  1.00  0.00    +0.000 C 
ATOM     19  C   UNL     1     -10.608 -10.989   3.744  1.00  0.00    +0.000 C 
ATOM     20  C   UNL     1      -7.960  -9.314   7.462  1.00  0.00    +0.000 C 
ATOM     21  C   UNL     1     -12.639 -12.049   5.662  1.00  0.00    +0.000 C 
ATOM     22  C   UNL     1     -15.329 -13.026   4.473  1.00  0.00    +0.000 C 
ATOM     23  C   UNL     1      -2.644  -8.266  12.221  1.00  0.00    +0.000 C 
ATOM     24  C   UNL     1     -18.208 -19.207   4.177  1.00  0.00    +0.000 C 
ATOM     25  N   UNL     1      -9.344 -10.181   5.657  1.00  0.00    +0.000 NA
ATOM     26  N   UNL     1     -11.289 -11.118   7.461  1.00  0.00    +0.000 NA
ATOM     27  O   UNL     1      -3.360  -4.823  10.596  1.00  0.00    +0.000 OA
ATOM     28  O   UNL     1     -15.933 -17.156   2.342  1.00  0.00    +0.000 OA
ATOM     29  O   UNL     1      -4.997  -7.906  12.797  1.00  0.00    +0.000 OA
ATOM     30  O   UNL     1      -2.101  -5.136  12.573  1.00  0.00    +0.000 OA
ATOM     31  O   UNL     1     -17.693 -18.626   1.943  1.00  0.00    +0.000 OA
ATOM     32  C   UNL     1      -4.413  -7.245   9.073  1.00  0.00    +0.000 C 
ATOM     33  C   UNL     1     -15.180 -14.119   1.829  1.00  0.00    +0.000 C 
ATOM     34  C   UNL     1      -6.597  -8.361   9.413  1.00  0.00    +0.000 C 
ATOM     35  C   UNL     1     -10.174 -10.476   7.887  1.00  0.00    +0.000 A 
ATOM     36  C   UNL     1     -10.453 -10.836   5.230  1.00  0.00    +0.000 A 
ATOM     37  C   UNL     1      -9.217 -10.002   6.995  1.00  0.00    +0.000 A 
ATOM     38  C   UNL     1     -11.421 -11.290   6.121  1.00  0.00    +0.000 A 
ATOM     39  C   UNL     1     -16.325 -14.109   3.989  1.00  0.00    +0.000 C 
ATOM     40  C   UNL     1     -17.195 -18.090   4.216  1.00  0.00    +0.000 C 
ATOM     41  C   UNL     1      -0.668  -3.318  12.058  1.00  0.00    +0.000 C 
ATOM     42  C   UNL     1      -1.594  -6.498  10.598  1.00  0.00    +0.000 C 
ATOM     43  C   UNL     1     -18.185 -16.318   2.427  1.00  0.00    +0.000 C 
ATOM     44  C   UNL     1     -16.110 -16.212   1.292  1.00  0.00    +0.000 C 
ATOM     45  C   UNL     1      -8.644  -9.841   9.809  1.00  0.00    +0.000 C 
ATOM     46  C   UNL     1     -11.664 -12.034   3.351  1.00  0.00    +0.000 C 
ATOM     47  C   UNL     1      -1.124  -3.942  10.739  1.00  0.00    +0.000 C 
ATOM     48  C   UNL     1      -4.019  -8.832  12.355  1.00  0.00    +0.000 C 
ATOM     49  C   UNL     1     -14.205 -13.017   2.161  1.00  0.00    +0.000 C 
ATOM     50  C   UNL     1      -2.643  -7.616  10.819  1.00  0.00    +0.000 C 
ATOM     51  C   UNL     1     -13.982 -13.015   3.701  1.00  0.00    +0.000 C 
ATOM     52  C   UNL     1      -1.702  -3.845  13.070  1.00  0.00    +0.000 C 
ATOM     53  C   UNL     1     -18.022 -19.763   2.772  1.00  0.00    +0.000 C 
ATOM     54  C   UNL     1      -8.017  -8.739   8.909  1.00  0.00    +0.000 C 
ATOM     55  C   UNL     1     -12.991 -11.875   4.157  1.00  0.00    +0.000 C 
ATOM     56  C   UNL     1      -6.172  -8.847  10.794  1.00  0.00    +0.000 C 
ATOM     57  C   UNL     1     -16.581 -14.074   2.453  1.00  0.00    +0.000 C 
ATOM     58  C   UNL     1     -17.269 -15.308   1.729  1.00  0.00    +0.000 C 
ATOM     59  C   UNL     1      -4.118  -7.170  10.564  1.00  0.00    +0.000 C 
ATOM     60  C   UNL     1     -17.264 -17.515   2.785  1.00  0.00    +0.000 C 
ATOM     61  C   UNL     1      -2.058  -5.125  11.141  1.00  0.00    +0.000 C 
ATOM     62  C   UNL     1      -4.944  -8.158  11.372  1.00  0.00    +0.000 C 
ENDROOT
BRANCH  39  63
ATOM     63  O   UNL     1     -15.843 -15.370   4.452  1.00  0.00    +0.000 OA
ATOM     64  H   UNL     1     -15.022 -15.214   4.962  1.00  0.00    +0.000 HD
ENDBRANCH  39  63
BRANCH  40  65
ATOM     65  O   UNL     1     -17.463 -17.215   5.295  1.00  0.00    +0.000 OA
ATOM     66  H   UNL     1     -17.769 -17.786   6.036  1.00  0.00    +0.000 HD
ENDBRANCH  40  65
BRANCH  47  67
ATOM     67  O   UNL     1      -1.820  -2.934   9.984  1.00  0.00    +0.000 OA
ATOM     68  H   UNL     1      -2.768  -3.181  10.042  1.00  0.00    +0.000 HD
ENDBRANCH  47  67
BRANCH  56  69
ATOM     69  O   UNL     1      -5.835 -10.225  10.613  1.00  0.00    +0.000 OA
ATOM     70  H   UNL     1      -4.950 -10.259  10.213  1.00  0.00    +0.000 HD
ENDBRANCH  56  69
BRANCH  58  71
ATOM     71  O   UNL     1     -17.970 -14.852   0.546  1.00  0.00    +0.000 OA
ATOM     72  H   UNL     1     -18.350 -13.976   0.746  1.00  0.00    +0.000 HD
ENDBRANCH  58  71
BRANCH  53  73
ATOM     73  C   UNL     1     -19.300 -20.412   2.217  1.00  0.00    +0.000 C 
BRANCH  73  74
ATOM     74  O   UNL     1     -19.281 -20.436   0.790  1.00  0.00    +0.000 OA
ATOM     75  H   UNL     1     -19.553 -19.542   0.510  1.00  0.00    +0.000 HD
ENDBRANCH  73  74
ENDBRANCH  53  73
TORSDOF 7
ENDMDL
