REMARK Crystallographic ATP from 1HCK, native frame.
REMARK Bond orders from SMILES template; Gasteiger charges (neutral form).
ATOM      1 PG   ATP A 400      98.899  93.299  85.116  1.00  0.00     0.478 P 
ATOM      2 O1G  ATP A 400     100.411  93.461  84.505  1.00  0.00    -0.228 OA
ATOM      3 O2G  ATP A 400      98.501  94.433  86.055  1.00  0.00    -0.302 OA
ATOM      4 O3G  ATP A 400      98.684  92.024  85.573  1.00  0.00    -0.302 OA
ATOM      5 PB   ATP A 400      98.111  94.683  82.367  1.00  0.00     0.490 P 
ATOM      6 O1B  ATP A 400      97.186  94.435  81.173  1.00  0.00    -0.227 OA
ATOM      7 O2B  ATP A 400      99.585  94.672  81.909  1.00  0.00    -0.302 OA
ATOM      8 O3B  ATP A 400      97.952  93.608  83.759  1.00  0.00    -0.185 OA
ATOM      9 PA   ATP A 400      99.218  96.994  83.821  1.00  0.00     0.481 P 
ATOM     10 O1A  ATP A 400     100.480  96.308  83.814  1.00  0.00    -0.228 OA
ATOM     11 O2A  ATP A 400      98.668  97.616  85.038  1.00  0.00    -0.302 OA
ATOM     12 O3A  ATP A 400      98.120  96.209  83.034  1.00  0.00    -0.184 OA
ATOM     13 O5'  ATP A 400      99.391  97.948  82.575  1.00  0.00    -0.284 OA
ATOM     14 C5'  ATP A 400      98.277  98.694  82.134  1.00  0.00     0.208 C 
ATOM     15 C4'  ATP A 400      98.357  99.230  80.821  1.00  0.00     0.179 C 
ATOM     16 O4'  ATP A 400      99.434 100.181  80.845  1.00  0.00    -0.347 OA
ATOM     17 C3'  ATP A 400      98.632  98.200  79.659  1.00  0.00     0.179 C 
ATOM     18 O3'  ATP A 400      98.617  98.925  78.377  1.00  0.00    -0.387 OA
ATOM     19 C2'  ATP A 400     100.160  98.143  79.772  1.00  0.00     0.195 C 
ATOM     20 O2'  ATP A 400     100.685  97.572  78.585  1.00  0.00    -0.386 OA
ATOM     21 C1'  ATP A 400     100.432  99.749  79.944  1.00  0.00     0.253 C 
ATOM     22 N9   ATP A 400     101.694  99.886  80.561  1.00  0.00    -0.285 N 
ATOM     23 C8   ATP A 400     102.297  99.089  81.550  1.00  0.00     0.204 A 
ATOM     24 N7   ATP A 400     103.542  99.421  81.887  1.00  0.00    -0.231 NA
ATOM     25 C5   ATP A 400     103.915 100.451  80.875  1.00  0.00     0.150 A 
ATOM     26 C6   ATP A 400     105.101 101.203  80.581  1.00  0.00     0.155 A 
ATOM     27 N6   ATP A 400     106.241 101.076  81.186  1.00  0.00    -0.382 N 
ATOM     28 N1   ATP A 400     104.937 102.135  79.591  1.00  0.00    -0.217 NA
ATOM     29 C2   ATP A 400     103.853 102.359  78.899  1.00  0.00     0.226 A 
ATOM     30 N3   ATP A 400     102.673 101.843  79.137  1.00  0.00    -0.216 NA
ATOM     31 C4   ATP A 400     102.719 100.782  80.097  1.00  0.00     0.167 A 
ATOM     32 HD   ATP A 400      98.605  94.136  86.994  1.00  0.00     0.223 HD
ATOM     33 HD   ATP A 400      98.684  92.024  86.563  1.00  0.00     0.223 HD
ATOM     34 HD   ATP A 400     100.177  94.668  82.702  1.00  0.00     0.223 HD
ATOM     35 HD   ATP A 400      99.056  97.178  85.837  1.00  0.00     0.223 HD
ATOM     36 HD   ATP A 400      98.597  99.900  78.549  1.00  0.00     0.211 HD
ATOM     37 HD   ATP A 400     101.336  96.864  78.819  1.00  0.00     0.211 HD
ATOM     38 HD   ATP A 400     107.041 101.662  80.906  1.00  0.00     0.158 HD
ATOM     39 HD   ATP A 400     106.347 100.390  81.947  1.00  0.00     0.158 HD
